/*--------------------------------*- C++ -*----------------------------------*\
| =========                 |                                                 |
| \\      /  F ield         | OpenFOAM: The Open Source CFD Toolbox           |
|  \\    /   O peration     | Version:  v2012                                 |
|   \\  /    A nd           | Website:  www.openfoam.com                      |
|    \\/     M anipulation  |                                                 |
\*---------------------------------------------------------------------------*/
FoamFile
{
    version     2.0;
    format      ascii;
    class       volSymmTensorField;
    location    "1";
    object      epsilon;
}
// * * * * * * * * * * * * * * * * * * * * * * * * * * * * * * * * * * * * * //

dimensions      [0 0 0 0 0 0 0];


internalField   nonuniform List<symmTensor> 
64
(
(-67606.8 16619.2 -41762 34368.5 -9225.67 -15917.1)
(-101649 20994.6 -194.794 59660.1 21515.4 -2119.8)
(-6939.89 -7674.73 16882.3 22289.3 27837.1 8693.45)
(27102.5 -12050.1 -18223 -3002.28 3170.59 9343.46)
(86845.8 45220.1 -14509.5 26664.6 -7089.62 -12485.4)
(135565 70997.4 34377.2 45058.8 18213.2 -3185.1)
(36357.8 12182.5 48096.7 -2264.35 29414.5 11564.6)
(-12361.5 -13594.8 -13631.3 -20658.5 -8276.29 4105.92)
(-60568.1 -4038.45 -11901.5 14759.5 -9954.99 5150.53)
(-156163 6446.6 -30696.2 46235.5 -5535.66 -15946.3)
(-175803 16235.6 -10685.9 35388.4 24621.3 -87.4424)
(-80208 5750.55 14683.8 3912.41 7397.82 10883.2)
(41329.1 31896.2 -21524 22463.3 -12091 1718.82)
(122247 91541.9 -14072.7 60836.8 -2233.43 -14881)
(146385 103164 22366.9 59942.1 23043.9 -2958.57)
(65467 43517.8 40793.9 21568.6 18844.7 16120.8)
(-156205 -31674.8 -96512.9 15604.3 -39677.5 -36820.5)
(-300149 -28682.2 -29914.2 34894.3 9325.18 1550.48)
(-129185 23856.4 51521 23013.4 36526.8 14880.1)
(14758.5 20863.8 -17574.2 3723.43 -289.089 20389.9)
(55066.4 113560 -113280 48842.3 -42142.5 -42857.4)
(59093.6 253957 14515.1 116134 15207.8 -2920.51)
(5693.55 182887 179312 71570.9 84651.5 23817)
(1666.39 42489.4 -6182.27 4279.59 -11644.2 21960.9)
(-77530.4 96496.1 -140023 48777.5 -27841.4 -12312.6)
(-136561 180816 -36249.1 91978.5 3693.16 -21908.4)
(-127884 33023.6 135181 3008.62 75908.9 11787)
(-68853.8 -51296.4 8356.04 -40192.4 -15850 22434)
(178669 78238.5 -86196.8 15539.4 -25376.3 -6275.62)
(377616 132767 4855.74 10739.2 -2189.45 -17437.4)
(251375 16470.5 95546.8 -45548.8 27784.1 2850.08)
(52428.9 -38058.2 36645.9 -40748.6 -4494.93 20863)
(-178503 -50820.1 -104765 3000.51 -56862.4 -31028)
(-294221 -136363 13139.3 -19160.9 -1911.83 25550.9)
(-145927 -90181.2 36710.8 -8805.7 3866.93 -1134.74)
(-30208.4 -4638.79 11798.3 13355.7 -341.519 6611.83)
(88824.8 -33803.2 -116966 -27287.8 -78331 -27808.2)
(45742.7 -158088 20666.9 -70552.7 -50000.9 30279.5)
(56855.8 -129117 170459 -32089.4 25532.2 -2243.59)
(99938 -4831.62 -13034.9 11175.5 -28760 -227.688)
(19072.8 -178949 -79867.5 -82767.9 -43109.7 6987.32)
(54611.6 -304084 -64043.3 -122824 -81399.7 2055.58)
(91902.9 -197757 236070 -61391.6 54706.1 5744.02)
(56364 -72622 -97357.6 -21335.7 -65892.2 -14786.9)
(70605 -90274.7 -37186.2 -52479.6 -21641.1 3767.48)
(193867 -122575 -28759.6 -71431.9 -33310.6 -2672.94)
(-2831.47 -111067 120157 -38107.9 33040.8 6852.87)
(-126094 -78766.5 -67020.5 -19155.6 -37473.7 -7947.42)
(-89904.1 -71438.7 -50014.4 -52973.3 -31549 -10124.7)
(-95722.1 -85557.8 42858.8 -75393.5 16092.2 21880.7)
(-23682.3 -30089.7 2072.06 -36497.1 12267 -7321.4)
(-17864.4 -15970.6 11149.5 -14076.8 9255.7 -4434.59)
(120604 -738.361 -18195.4 -48219.2 -22827.7 2563.85)
(122214 -4541.34 40529 -90639.7 20470.6 30014.9)
(87520 37966.2 39243.8 -37217.1 49142.7 -14496)
(85910.1 41769.2 -20483.9 5203.41 6439.64 -18082.7)
(36035.1 53579 48254.3 19231 21840.7 24450.4)
(35009.6 51547.9 -58490.3 -15390.3 1533.19 8017.7)
(43984.3 98047.1 90203.5 22994.6 75521.5 -6130.39)
(45009.8 100078 -91029.8 57615.8 -15639 -26337.7)
(-66735.1 26129.1 27486.6 14476.9 13119.4 11761.9)
(-61501.6 30822.9 -47688 -144.096 -2845.26 -116.501)
(-107822 42053.7 46977 23714.6 38645.8 1044.23)
(-113055 37360 -62872.6 38335.6 -12823 -12689.6)
)
;

boundaryField
{
    bottom
    {
        type            calculated;
        value           nonuniform List<symmTensor> 
16
(
(-67606.8 16619.2 -41762 34368.5 -9225.67 -15917.1)
(86845.8 45220.1 -14509.5 26664.6 -7089.62 -12485.4)
(-60568.1 -4038.45 -11901.5 14759.5 -9954.99 5150.53)
(41329.1 31896.2 -21524 22463.3 -12091 1718.82)
(-156205 -31674.8 -96512.9 15604.3 -39677.5 -36820.5)
(55066.4 113560 -113280 48842.3 -42142.5 -42857.4)
(-77530.4 96496.1 -140023 48777.5 -27841.4 -12312.6)
(178669 78238.5 -86196.8 15539.4 -25376.3 -6275.62)
(-178503 -50820.1 -104765 3000.51 -56862.4 -31028)
(88824.8 -33803.2 -116966 -27287.8 -78331 -27808.2)
(19072.8 -178949 -79867.5 -82767.9 -43109.7 6987.32)
(70605 -90274.7 -37186.2 -52479.6 -21641.1 3767.48)
(-89904.1 -71438.7 -50014.4 -52973.3 -31549 -10124.7)
(120604 -738.361 -18195.4 -48219.2 -22827.7 2563.85)
(36035.1 53579 48254.3 19231 21840.7 24450.4)
(-66735.1 26129.1 27486.6 14476.9 13119.4 11761.9)
)
;
    }
    left
    {
        type            calculated;
        value           nonuniform List<symmTensor> 
16
(
(-67606.8 16619.2 -41762 34368.5 -9225.67 -15917.1)
(-101649 20994.6 -194.794 59660.1 21515.4 -2119.8)
(-6939.89 -7674.73 16882.3 22289.3 27837.1 8693.45)
(27102.5 -12050.1 -18223 -3002.28 3170.59 9343.46)
(-156205 -31674.8 -96512.9 15604.3 -39677.5 -36820.5)
(-300149 -28682.2 -29914.2 34894.3 9325.18 1550.48)
(-129185 23856.4 51521 23013.4 36526.8 14880.1)
(14758.5 20863.8 -17574.2 3723.43 -289.089 20389.9)
(-178503 -50820.1 -104765 3000.51 -56862.4 -31028)
(-294221 -136363 13139.3 -19160.9 -1911.83 25550.9)
(-145927 -90181.2 36710.8 -8805.7 3866.93 -1134.74)
(-30208.4 -4638.79 11798.3 13355.7 -341.519 6611.83)
(-89904.1 -71438.7 -50014.4 -52973.3 -31549 -10124.7)
(-95722.1 -85557.8 42858.8 -75393.5 16092.2 21880.7)
(-23682.3 -30089.7 2072.06 -36497.1 12267 -7321.4)
(-17864.4 -15970.6 11149.5 -14076.8 9255.7 -4434.59)
)
;
    }
    front
    {
        type            calculated;
        value           nonuniform List<symmTensor> 
16
(
(-89904.1 -71438.7 -50014.4 -52973.3 -31549 -10124.7)
(-95722.1 -85557.8 42858.8 -75393.5 16092.2 21880.7)
(-23682.3 -30089.7 2072.06 -36497.1 12267 -7321.4)
(-17864.4 -15970.6 11149.5 -14076.8 9255.7 -4434.59)
(120604 -738.361 -18195.4 -48219.2 -22827.7 2563.85)
(122214 -4541.34 40529 -90639.7 20470.6 30014.9)
(87520 37966.2 39243.8 -37217.1 49142.7 -14496)
(85910.1 41769.2 -20483.9 5203.41 6439.64 -18082.7)
(36035.1 53579 48254.3 19231 21840.7 24450.4)
(35009.6 51547.9 -58490.3 -15390.3 1533.19 8017.7)
(43984.3 98047.1 90203.5 22994.6 75521.5 -6130.39)
(45009.8 100078 -91029.8 57615.8 -15639 -26337.7)
(-66735.1 26129.1 27486.6 14476.9 13119.4 11761.9)
(-61501.6 30822.9 -47688 -144.096 -2845.26 -116.501)
(-107822 42053.7 46977 23714.6 38645.8 1044.23)
(-113055 37360 -62872.6 38335.6 -12823 -12689.6)
)
;
    }
    right
    {
        type            calculated;
        value           nonuniform List<symmTensor> 
16
(
(41329.1 31896.2 -21524 22463.3 -12091 1718.82)
(122247 91541.9 -14072.7 60836.8 -2233.43 -14881)
(146385 103164 22366.9 59942.1 23043.9 -2958.57)
(65467 43517.8 40793.9 21568.6 18844.7 16120.8)
(178669 78238.5 -86196.8 15539.4 -25376.3 -6275.62)
(377616 132767 4855.74 10739.2 -2189.45 -17437.4)
(251375 16470.5 95546.8 -45548.8 27784.1 2850.08)
(52428.9 -38058.2 36645.9 -40748.6 -4494.93 20863)
(70605 -90274.7 -37186.2 -52479.6 -21641.1 3767.48)
(193867 -122575 -28759.6 -71431.9 -33310.6 -2672.94)
(-2831.47 -111067 120157 -38107.9 33040.8 6852.87)
(-126094 -78766.5 -67020.5 -19155.6 -37473.7 -7947.42)
(-66735.1 26129.1 27486.6 14476.9 13119.4 11761.9)
(-61501.6 30822.9 -47688 -144.096 -2845.26 -116.501)
(-107822 42053.7 46977 23714.6 38645.8 1044.23)
(-113055 37360 -62872.6 38335.6 -12823 -12689.6)
)
;
    }
    back
    {
        type            calculated;
        value           nonuniform List<symmTensor> 
16
(
(-67606.8 16619.2 -41762 34368.5 -9225.67 -15917.1)
(-101649 20994.6 -194.794 59660.1 21515.4 -2119.8)
(-6939.89 -7674.73 16882.3 22289.3 27837.1 8693.45)
(27102.5 -12050.1 -18223 -3002.28 3170.59 9343.46)
(86845.8 45220.1 -14509.5 26664.6 -7089.62 -12485.4)
(135565 70997.4 34377.2 45058.8 18213.2 -3185.1)
(36357.8 12182.5 48096.7 -2264.35 29414.5 11564.6)
(-12361.5 -13594.8 -13631.3 -20658.5 -8276.29 4105.92)
(-60568.1 -4038.45 -11901.5 14759.5 -9954.99 5150.53)
(-156163 6446.6 -30696.2 46235.5 -5535.66 -15946.3)
(-175803 16235.6 -10685.9 35388.4 24621.3 -87.4424)
(-80208 5750.55 14683.8 3912.41 7397.82 10883.2)
(41329.1 31896.2 -21524 22463.3 -12091 1718.82)
(122247 91541.9 -14072.7 60836.8 -2233.43 -14881)
(146385 103164 22366.9 59942.1 23043.9 -2958.57)
(65467 43517.8 40793.9 21568.6 18844.7 16120.8)
)
;
    }
    top
    {
        type            calculated;
        value           nonuniform List<symmTensor> 
16
(
(27102.5 -12050.1 -18223 -3002.28 3170.59 9343.46)
(-12361.5 -13594.8 -13631.3 -20658.5 -8276.29 4105.92)
(-80208 5750.55 14683.8 3912.41 7397.82 10883.2)
(65467 43517.8 40793.9 21568.6 18844.7 16120.8)
(14758.5 20863.8 -17574.2 3723.43 -289.089 20389.9)
(1666.39 42489.4 -6182.27 4279.59 -11644.2 21960.9)
(-68853.8 -51296.4 8356.04 -40192.4 -15850 22434)
(52428.9 -38058.2 36645.9 -40748.6 -4494.93 20863)
(-30208.4 -4638.79 11798.3 13355.7 -341.519 6611.83)
(99938 -4831.62 -13034.9 11175.5 -28760 -227.688)
(56364 -72622 -97357.6 -21335.7 -65892.2 -14786.9)
(-126094 -78766.5 -67020.5 -19155.6 -37473.7 -7947.42)
(-17864.4 -15970.6 11149.5 -14076.8 9255.7 -4434.59)
(85910.1 41769.2 -20483.9 5203.41 6439.64 -18082.7)
(45009.8 100078 -91029.8 57615.8 -15639 -26337.7)
(-113055 37360 -62872.6 38335.6 -12823 -12689.6)
)
;
    }
}


// ************************************************************************* //
