/*--------------------------------*- C++ -*----------------------------------*\
| =========                 |                                                 |
| \\      /  F ield         | OpenFOAM: The Open Source CFD Toolbox           |
|  \\    /   O peration     | Version:  v2012                                 |
|   \\  /    A nd           | Website:  www.openfoam.com                      |
|    \\/     M anipulation  |                                                 |
\*---------------------------------------------------------------------------*/
FoamFile
{
    version     2.0;
    format      ascii;
    class       volScalarField;
    location    "1";
    object      epsilonEq;
}
// * * * * * * * * * * * * * * * * * * * * * * * * * * * * * * * * * * * * * //

dimensions      [0 0 0 0 0 0 0];


internalField   nonuniform List<scalar> 
64
(
79206.7
100184
42154.5
30905.3
80076.4
123913
70331.2
28237.3
50832.7
125237
135516
61901.2
51889.4
133172
151860
78698
161846
218690
125903
32987.1
201694
302174
313952
52928.2
211921
250545
204112
82719.4
180408
297169
217718
82116.2
186548
254968
146665
30782.6
184296
206261
254109
73279.3
240432
385576
371904
167138
135634
218839
194680
147664
116587
133501
41215.1
26153
105546
134047
114370
83139.3
87560.8
94634.4
179209
165716
70595.4
77354.3
117833
123536
)
;

boundaryField
{
    bottom
    {
        type            calculated;
        value           nonuniform List<scalar> 
16
(
79206.7
80076.4
50832.7
51889.4
161846
201694
211921
180408
186548
184296
240432
135634
116587
105546
87560.8
70595.4
)
;
    }
    left
    {
        type            calculated;
        value           nonuniform List<scalar> 
16
(
79206.7
100184
42154.5
30905.3
161846
218690
125903
32987.1
186548
254968
146665
30782.6
116587
133501
41215.1
26153
)
;
    }
    front
    {
        type            calculated;
        value           nonuniform List<scalar> 
16
(
116587
133501
41215.1
26153
105546
134047
114370
83139.3
87560.8
94634.4
179209
165716
70595.4
77354.3
117833
123536
)
;
    }
    right
    {
        type            calculated;
        value           nonuniform List<scalar> 
16
(
51889.4
133172
151860
78698
180408
297169
217718
82116.2
135634
218839
194680
147664
70595.4
77354.3
117833
123536
)
;
    }
    back
    {
        type            calculated;
        value           nonuniform List<scalar> 
16
(
79206.7
100184
42154.5
30905.3
80076.4
123913
70331.2
28237.3
50832.7
125237
135516
61901.2
51889.4
133172
151860
78698
)
;
    }
    top
    {
        type            calculated;
        value           nonuniform List<scalar> 
16
(
30905.3
28237.3
61901.2
78698
32987.1
52928.2
82719.4
82116.2
30782.6
73279.3
167138
147664
26153
83139.3
165716
123536
)
;
    }
}


// ************************************************************************* //
