/*--------------------------------*- C++ -*----------------------------------*\
| =========                 |                                                 |
| \\      /  F ield         | OpenFOAM: The Open Source CFD Toolbox           |
|  \\    /   O peration     | Version:  v2012                                 |
|   \\  /    A nd           | Website:  www.openfoam.com                      |
|    \\/     M anipulation  |                                                 |
\*---------------------------------------------------------------------------*/
FoamFile
{
    version     2.0;
    format      ascii;
    class       pointSymmTensorField;
    location    "1";
    object      pEpsilon;
}
// * * * * * * * * * * * * * * * * * * * * * * * * * * * * * * * * * * * * * //

dimensions      [0 0 0 0 0 0 0];


internalField   nonuniform List<symmTensor> 
125
(
(0 0 0 0 0 0)
(0 0 0 0 0 0)
(0 0 0 0 0 0)
(0 0 0 0 0 0)
(0 0 0 0 0 0)
(0 0 0 0 0 0)
(0 0 0 0 0 0)
(0 0 0 0 0 0)
(0 0 0 0 0 0)
(0 0 0 0 0 0)
(0 0 0 0 0 0)
(0 0 0 0 0 0)
(0 0 0 0 0 0)
(0 0 0 0 0 0)
(0 0 0 0 0 0)
(0 0 0 0 0 0)
(0 0 0 0 0 0)
(0 0 0 0 0 0)
(0 0 0 0 0 0)
(0 0 0 0 0 0)
(0 0 0 0 0 0)
(0 0 0 0 0 0)
(0 0 0 0 0 0)
(0 0 0 0 0 0)
(0 0 0 0 0 0)
(0 0 0 0 0 0)
(0 0 0 0 0 0)
(0 0 0 0 0 0)
(0 0 0 0 0 0)
(0 0 0 0 0 0)
(0 0 0 0 0 0)
(0 0 0 0 0 0)
(0 0 0 0 0 0)
(0 0 0 0 0 0)
(0 0 0 0 0 0)
(0 0 0 0 0 0)
(0 0 0 0 0 0)
(0 0 0 0 0 0)
(0 0 0 0 0 0)
(0 0 0 0 0 0)
(0 0 0 0 0 0)
(0 0 0 0 0 0)
(0 0 0 0 0 0)
(0 0 0 0 0 0)
(0 0 -135214 0 -68736.9 -63668.4)
(0 0 38477.9 0 15407.6 13726.8)
(0 0 -82658.3 0 -44926.5 6875.27)
(0 0 -177197 0 -99945.5 -83613.4)
(0 0 -240756 0 -51068.5 -37874.7)
(0 0 -274680 0 -76005.3 -31977.8)
(0 0 -179808 0 -105947 -40498.7)
(0 0 61400.1 0 9508.16 50754.1)
(0 0 133470 0 28953.8 47047.7)
(-270427 -68736.9 -31834.2 0 0 0)
(-136170 -50583.3 -36073.8 0 0 0)
(108410 6004.56 -18686.9 0 0 0)
(-354394 -99945.5 -41806.7 0 0 0)
(-439604 -89163.3 -34466.2 0 0 0)
(-49376.1 -1442.29 -22092.8 0 0 0)
(-359617 -105947 -20249.3 0 0 0)
(-23271.7 -44840.5 23512 0 0 0)
(-71457.6 -28153.6 8869.18 0 0 0)
(0 -179808 0 -211893 -20249.3 0)
(0 -11635.9 0 -89681 23512 0)
(0 -35728.8 0 -56307.3 8869.18 0)
(0 61400.1 0 19016.3 25377 0)
(0 -8416.05 0 -80001 41645.4 0)
(0 136091 0 77120.9 27296.2 0)
(0 133470 0 57907.5 23523.8 0)
(0 -10467 0 -58483.9 23290.8 0)
(0 226111 0 153342 25379.3 0)
(-266941 -28953.8 -23523.8 0 0 0)
(20934.1 29241.9 -23290.8 0 0 0)
(-452222 -76671.1 -25379.3 0 0 0)
(549360 76005.3 15988.9 0 0 0)
(472114 67146.6 21101.8 0 0 0)
(-52152.3 -38359.9 9484.46 0 0 0)
(165317 44926.5 -3437.64 0 0 0)
(323672 76747 26324.4 0 0 0)
(261868 43137.3 32241.5 0 0 0)
(0 82658.3 0 89853 -3437.64 0)
(0 161836 0 153494 26324.4 0)
(0 130934 0 86274.6 32241.5 0)
(0 -38477.9 0 -30815.2 -6863.42 0)
(0 -29353.7 0 -27589.9 -4732.82 0)
(0 -29482.1 0 -70624.9 -10475.1 0)
(0 135214 0 137474 31834.2 0)
(0 68084.8 0 101167 36073.8 0)
(0 -54205 0 -12009.1 18686.9 0)
(0 0 -54205 0 -6004.56 37373.8)
(0 0 -29482.1 0 -35312.5 -20950.1)
(0 0 130934 0 43137.3 64483)
(0 0 24688 0 1442.29 44185.7)
(0 0 -3367.7 0 -34200.1 27234.3)
(0 0 -26076.2 0 -38359.9 18968.9)
(0 0 35728.8 0 28153.6 -17738.4)
(0 0 -136091 0 -38560.5 -54592.4)
(0 0 -226111 0 -76671.1 -50758.6)
(38477.9 96302.2 -30610.7 99945.5 -4388.27 -36073.8)
(29353.7 116798 97075.7 89163.3 54603.8 13147.3)
(29482.1 30000.2 39279.9 1442.29 36338 36073.8)
(52555.4 132283 32312.8 51068.5 16366.1 4732.82)
(-93751 141511 376.775 82207.6 22826.8 3611.65)
(-185139 -26254.8 -21454.1 -34200.1 -88.8824 -4732.82)
(-38477.9 129636 -84349.6 76005.3 -30379.1 -26324.4)
(-29353.7 111131 -26504.3 67146.6 11445.5 -35679.1)
(-29482.1 -30694.3 75680.4 -38359.9 43115.7 26324.4)
(-240756 -3236.93 -119370 37209.6 -50374.1 -34466.2)
(-309186 -69328.3 63380 -5742.73 19458.7 19713.9)
(3367.7 62067 103092 34158.2 30803.6 34466.2)
(-97483.4 508.974 -141684 5899.45 -50360.6 -25748.7)
(-16255.4 29893.2 128744 53795.5 24178 5320.18)
(50764.2 -33403.6 160897 -3248 32693.3 25748.7)
(240756 -82530 -108560 -73880.3 -43616.4 -21101.8)
(309186 -34580.5 163253 -47505 32375 6504.42)
(-3367.7 -195623 124837 -119808 4762.88 21101.8)
(61400.1 -83844.3 6870.58 -99945.5 -43323.6 23512)
(-8416.05 -129901 92862.5 -89163.3 21663.4 29118.5)
(136091 6936.21 19466 -1442.29 11373.8 -23512)
(313279 -52927.7 17678.6 -51068.5 -29468.9 41645.4)
(1168.82 -146794 37235.1 -82207.6 1651.79 1919.16)
(261840 54096.2 12463.1 34200.1 13191.7 -41645.4)
(-61400.1 -142094 -17922 -76005.3 -22615.4 23290.8)
(8416.05 -98028.3 25497.6 -67146.6 13307.8 1855.46)
(-136091 -6242.15 -8414.57 38359.9 9878.74 -23290.8)
)
;

boundaryField
{
    bottom
    {
        type            calculated;
    }
    left
    {
        type            calculated;
    }
    front
    {
        type            calculated;
    }
    right
    {
        type            calculated;
    }
    back
    {
        type            calculated;
    }
    top
    {
        type            calculated;
    }
}


// ************************************************************************* //
