/*--------------------------------*- C++ -*----------------------------------*\
| =========                 |                                                 |
| \\      /  F ield         | OpenFOAM: The Open Source CFD Toolbox           |
|  \\    /   O peration     | Version:  v2012                                 |
|   \\  /    A nd           | Website:  www.openfoam.com                      |
|    \\/     M anipulation  |                                                 |
\*---------------------------------------------------------------------------*/
FoamFile
{
    version     2.0;
    format      ascii;
    class       pointScalarField;
    location    "1";
    object      pEpsilonEq;
}
// * * * * * * * * * * * * * * * * * * * * * * * * * * * * * * * * * * * * * //

dimensions      [0 0 0 0 0 0 0];


internalField   nonuniform List<scalar> 
125
(
0
0
0
0
0
0
0
0
0
0
0
0
0
0
0
0
0
0
0
0
0
0
0
0
0
0
0
0
0
0
0
0
0
0
0
0
0
0
0
0
0
0
0
0
180217
48727.2
108729
241435
285305
329782
242494
79322.5
160792
200383
115705
75743.7
267337
313167
41678.8
270167
60487
58575.9
252210
67023.4
56710.3
77756.1
72466.6
168319
161185
48882.8
281918
183100
45367.1
315575
377061
325067
57365.1
121875
235242
185324
112756
215212
165989
49587.4
38949
59347
184737
111645
66687.9
67723.4
54923.8
164886
41026.3
43638.3
55032
53840
167337
277761
140807
192008
73950.9
161452
194307
118411
195951
148344
114065
223974
238567
144906
184090
160583
195970
255318
296323
281766
146389
198730
103510
230469
183579
193913
178504
127484
103497
)
;

boundaryField
{
    bottom
    {
        type            calculated;
    }
    left
    {
        type            calculated;
    }
    front
    {
        type            calculated;
    }
    right
    {
        type            calculated;
    }
    back
    {
        type            calculated;
    }
    top
    {
        type            calculated;
    }
}


// ************************************************************************* //
