/*--------------------------------*- C++ -*----------------------------------*\
| =========                 |                                                 |
| \\      /  F ield         | OpenFOAM: The Open Source CFD Toolbox           |
|  \\    /   O peration     | Version:  v2012                                 |
|   \\  /    A nd           | Website:  www.openfoam.com                      |
|    \\/     M anipulation  |                                                 |
\*---------------------------------------------------------------------------*/
FoamFile
{
    version     2.0;
    format      ascii;
    class       volSymmTensorField;
    location    "1";
    object      sigma;
}
// * * * * * * * * * * * * * * * * * * * * * * * * * * * * * * * * * * * * * //

dimensions      [1 -1 -2 0 0 0 0];


internalField   nonuniform List<symmTensor> 
64
(
(-1.60728e+16 2.5568e+15 -6.42492e+15 -3.84332e+14 -1.41933e+15 -8.12057e+15)
(-2.07278e+16 3.22993e+15 -2.99683e+13 4.08898e+15 3.31006e+15 -5.41562e+15)
(1.70651e+15 -1.18073e+15 2.59727e+15 6.20331e+15 4.28264e+15 4.11163e+15)
(8.0285e+15 -1.85386e+15 -2.80354e+15 3.397e+15 4.87783e+14 5.29634e+15)
(2.50176e+16 6.95693e+15 -2.23223e+15 1.5759e+16 -1.09071e+15 9.73591e+15)
(4.13299e+16 1.09227e+16 5.2888e+15 2.74058e+16 2.80203e+15 1.99837e+16)
(1.08617e+16 1.87424e+15 7.39949e+15 4.91987e+15 4.52531e+15 7.04739e+15)
(-5.238e+15 -2.09151e+15 -2.09712e+15 -6.51447e+15 -1.27328e+15 -2.70456e+15)
(-1.40095e+16 -6.213e+14 -1.831e+15 -2.42064e+15 -1.53154e+15 -3.89893e+15)
(-3.85489e+16 9.91785e+14 -4.72249e+15 -7.41073e+15 -8.5164e+14 -1.69772e+16)
(-4.32583e+16 2.49778e+15 -1.64398e+15 -1.07674e+16 3.78789e+15 -1.62252e+16)
(-1.98873e+16 8.84699e+14 2.25905e+15 -6.94567e+15 1.13813e+15 -5.87324e+15)
(1.39173e+16 4.90711e+15 -3.31138e+15 1.10149e+16 -1.86016e+15 7.82342e+15)
(3.82152e+16 1.40834e+16 -2.16503e+15 2.87675e+16 -3.43605e+14 1.71186e+16)
(4.59863e+16 1.58713e+16 3.44107e+15 3.26875e+16 3.54522e+15 2.30104e+16)
(2.19745e+16 6.69505e+15 6.27598e+15 1.52209e+16 2.89918e+15 1.43828e+16)
(-4.45033e+16 -4.87305e+15 -1.48481e+16 -1.8071e+16 -6.10423e+15 -2.61364e+16)
(-7.66041e+16 -4.41264e+15 -4.60219e+15 -2.5059e+16 1.43464e+15 -3.01888e+16)
(-3.04082e+16 3.67022e+15 7.9263e+15 -6.99308e+15 5.6195e+15 -8.24436e+15)
(6.75574e+15 3.20982e+15 -2.70372e+15 5.05804e+15 -4.44753e+13 7.62211e+15)
(1.55161e+16 1.74707e+16 -1.74277e+16 1.45586e+16 -6.48346e+15 4.50933e+14)
(2.89729e+16 3.90703e+16 2.23309e+15 3.77483e+16 2.33966e+15 1.94322e+16)
(1.25392e+16 2.81365e+16 2.75864e+16 2.26741e+16 1.30233e+16 1.53274e+16)
(3.47639e+15 6.53684e+15 -9.51119e+14 3.87842e+15 -1.79141e+15 6.59863e+15)
(-1.66661e+16 1.48456e+16 -2.15421e+16 2.76589e+15 -4.28329e+15 -6.63257e+15)
(-2.86813e+16 2.78179e+16 -5.57679e+15 6.47855e+15 5.68179e+14 -1.10425e+16)
(-3.27232e+16 5.08055e+15 2.0797e+16 -1.25858e+16 1.16783e+16 -1.12353e+16)
(-2.05866e+16 -7.89176e+15 1.28555e+15 -1.61772e+16 -2.43846e+15 -6.54232e+15)
(4.91722e+16 1.20367e+16 -1.3261e+16 2.40753e+16 -3.90405e+15 2.07191e+16)
(1.00893e+17 2.04257e+16 7.47036e+14 4.44504e+16 -3.36839e+14 4.01155e+16)
(6.27512e+16 2.53393e+15 1.46995e+16 1.70706e+16 4.27448e+15 2.45165e+16)
(1.1821e+16 -5.85511e+15 5.63784e+15 -2.51402e+15 -6.91528e+14 6.96468e+15)
(-5.12923e+16 -7.81848e+15 -1.61177e+16 -2.33688e+16 -8.74805e+15 -2.86039e+16)
(-7.84761e+16 -2.09789e+16 2.02143e+15 -3.61591e+16 -2.94127e+14 -2.92804e+16)
(-4.04351e+16 -1.3874e+16 5.64781e+15 -1.93395e+16 5.94912e+14 -1.81593e+16)
(-5.82909e+15 -7.13661e+14 1.81512e+15 8.73075e+14 -5.25414e+13 -1.6444e+14)
(1.75571e+16 -5.20048e+15 -1.79948e+16 -3.06333e+14 -1.20509e+16 -3.86391e+14)
(7.66842e+15 -2.43213e+16 3.17952e+15 -1.02232e+16 -7.69245e+15 5.28946e+15)
(1.13458e+16 -1.98641e+16 2.62244e+16 -2.33805e+15 3.92804e+15 2.25362e+15)
(2.81696e+16 -7.43326e+14 -2.00537e+15 1.45138e+16 -4.42462e+15 1.27595e+16)
(-3.60894e+15 -2.75307e+16 -1.22873e+16 -1.92767e+16 -6.63227e+15 -5.46823e+15)
(7.6835e+14 -4.67822e+16 -9.85281e+15 -2.65294e+16 -1.2523e+16 -7.3172e+15)
(1.83222e+16 -3.04242e+16 3.63185e+16 -5.26156e+15 8.41633e+15 5.067e+15)
(1.10069e+16 -1.11726e+16 -1.49781e+16 -9.46886e+14 -1.01373e+16 6.06234e+13)
(1.33884e+16 -1.38884e+16 -5.72096e+15 -5.54767e+15 -3.3294e+15 3.10572e+15)
(4.36444e+16 -1.88577e+16 -4.42455e+15 2.82921e+15 -5.1247e+15 1.34075e+16)
(-4.36867e+15 -1.70872e+16 1.84857e+16 -9.79581e+15 5.0832e+15 -2.87877e+15)
(-3.70755e+16 -1.21179e+16 -1.03108e+16 -2.06235e+16 -5.76519e+15 -1.88992e+16)
(-3.14855e+16 -1.09906e+16 -7.69452e+15 -2.58038e+16 -4.85369e+15 -1.92117e+16)
(-3.19459e+16 -1.31627e+16 6.59366e+15 -2.88184e+16 2.47572e+15 -1.38532e+16)
(-1.1432e+16 -4.62919e+15 3.18778e+14 -1.34035e+16 1.88723e+15 -8.91493e+15)
(-6.94558e+15 -2.45702e+15 1.71531e+15 -6.36287e+15 1.42395e+15 -4.87945e+15)
(2.72024e+16 -1.13594e+14 -2.7993e+15 1.22961e+15 -3.51195e+15 9.04239e+15)
(2.59086e+16 -6.98667e+14 6.23523e+15 -6.83812e+15 3.14933e+15 1.17241e+16)
(1.75962e+16 5.84096e+15 6.0375e+15 -1.59414e+15 7.56041e+15 1.90141e+15)
(2.16436e+16 6.42603e+15 -3.15137e+15 9.22716e+15 9.90713e+14 5.64468e+15)
(1.47419e+16 8.24292e+15 7.42374e+15 1.21567e+16 3.36011e+15 1.29597e+16)
(8.57497e+15 7.93044e+15 -8.99851e+15 8.21149e+14 2.35876e+14 4.42238e+15)
(1.37878e+16 1.50842e+16 1.38775e+16 1.05586e+16 1.16187e+16 6.07783e+15)
(1.5727e+16 1.53967e+16 -1.40046e+16 1.76664e+16 -2.406e+15 4.75048e+15)
(-1.49396e+16 4.01987e+15 4.22871e+15 -2.44544e+15 2.01837e+15 -2.86313e+15)
(-1.65882e+16 4.74198e+15 -7.33661e+15 -7.14858e+15 -4.37732e+14 -7.14433e+15)
(-2.61722e+16 6.4698e+15 7.22723e+15 -5.93581e+15 5.94551e+15 -9.42356e+15)
(-2.74789e+16 5.74769e+15 -9.6727e+15 -4.18794e+15 -1.97276e+15 -1.2038e+16)
)
;

boundaryField
{
    bottom
    {
        type            calculated;
        value           nonuniform List<symmTensor> 
16
(
(-1.60728e+16 2.5568e+15 -6.42492e+15 -3.84332e+14 -1.41933e+15 -8.12057e+15)
(2.50176e+16 6.95693e+15 -2.23223e+15 1.5759e+16 -1.09071e+15 9.73591e+15)
(-1.40095e+16 -6.213e+14 -1.831e+15 -2.42064e+15 -1.53154e+15 -3.89893e+15)
(1.39173e+16 4.90711e+15 -3.31138e+15 1.10149e+16 -1.86016e+15 7.82342e+15)
(-4.45033e+16 -4.87305e+15 -1.48481e+16 -1.8071e+16 -6.10423e+15 -2.61364e+16)
(1.55161e+16 1.74707e+16 -1.74277e+16 1.45586e+16 -6.48346e+15 4.50933e+14)
(-1.66661e+16 1.48456e+16 -2.15421e+16 2.76589e+15 -4.28329e+15 -6.63257e+15)
(4.91722e+16 1.20367e+16 -1.3261e+16 2.40753e+16 -3.90405e+15 2.07191e+16)
(-5.12923e+16 -7.81848e+15 -1.61177e+16 -2.33688e+16 -8.74805e+15 -2.86039e+16)
(1.75571e+16 -5.20048e+15 -1.79948e+16 -3.06333e+14 -1.20509e+16 -3.86391e+14)
(-3.60894e+15 -2.75307e+16 -1.22873e+16 -1.92767e+16 -6.63227e+15 -5.46823e+15)
(1.33884e+16 -1.38884e+16 -5.72096e+15 -5.54767e+15 -3.3294e+15 3.10572e+15)
(-3.14855e+16 -1.09906e+16 -7.69452e+15 -2.58038e+16 -4.85369e+15 -1.92117e+16)
(2.72024e+16 -1.13594e+14 -2.7993e+15 1.22961e+15 -3.51195e+15 9.04239e+15)
(1.47419e+16 8.24292e+15 7.42374e+15 1.21567e+16 3.36011e+15 1.29597e+16)
(-1.49396e+16 4.01987e+15 4.22871e+15 -2.44544e+15 2.01837e+15 -2.86313e+15)
)
;
    }
    left
    {
        type            calculated;
        value           nonuniform List<symmTensor> 
16
(
(-1.60728e+16 2.5568e+15 -6.42492e+15 -3.84332e+14 -1.41933e+15 -8.12057e+15)
(-2.07278e+16 3.22993e+15 -2.99683e+13 4.08898e+15 3.31006e+15 -5.41562e+15)
(1.70651e+15 -1.18073e+15 2.59727e+15 6.20331e+15 4.28264e+15 4.11163e+15)
(8.0285e+15 -1.85386e+15 -2.80354e+15 3.397e+15 4.87783e+14 5.29634e+15)
(-4.45033e+16 -4.87305e+15 -1.48481e+16 -1.8071e+16 -6.10423e+15 -2.61364e+16)
(-7.66041e+16 -4.41264e+15 -4.60219e+15 -2.5059e+16 1.43464e+15 -3.01888e+16)
(-3.04082e+16 3.67022e+15 7.9263e+15 -6.99308e+15 5.6195e+15 -8.24436e+15)
(6.75574e+15 3.20982e+15 -2.70372e+15 5.05804e+15 -4.44753e+13 7.62211e+15)
(-5.12923e+16 -7.81848e+15 -1.61177e+16 -2.33688e+16 -8.74805e+15 -2.86039e+16)
(-7.84761e+16 -2.09789e+16 2.02143e+15 -3.61591e+16 -2.94127e+14 -2.92804e+16)
(-4.04351e+16 -1.3874e+16 5.64781e+15 -1.93395e+16 5.94912e+14 -1.81593e+16)
(-5.82909e+15 -7.13661e+14 1.81512e+15 8.73075e+14 -5.25414e+13 -1.6444e+14)
(-3.14855e+16 -1.09906e+16 -7.69452e+15 -2.58038e+16 -4.85369e+15 -1.92117e+16)
(-3.19459e+16 -1.31627e+16 6.59366e+15 -2.88184e+16 2.47572e+15 -1.38532e+16)
(-1.1432e+16 -4.62919e+15 3.18778e+14 -1.34035e+16 1.88723e+15 -8.91493e+15)
(-6.94558e+15 -2.45702e+15 1.71531e+15 -6.36287e+15 1.42395e+15 -4.87945e+15)
)
;
    }
    front
    {
        type            calculated;
        value           nonuniform List<symmTensor> 
16
(
(-3.14855e+16 -1.09906e+16 -7.69452e+15 -2.58038e+16 -4.85369e+15 -1.92117e+16)
(-3.19459e+16 -1.31627e+16 6.59366e+15 -2.88184e+16 2.47572e+15 -1.38532e+16)
(-1.1432e+16 -4.62919e+15 3.18778e+14 -1.34035e+16 1.88723e+15 -8.91493e+15)
(-6.94558e+15 -2.45702e+15 1.71531e+15 -6.36287e+15 1.42395e+15 -4.87945e+15)
(2.72024e+16 -1.13594e+14 -2.7993e+15 1.22961e+15 -3.51195e+15 9.04239e+15)
(2.59086e+16 -6.98667e+14 6.23523e+15 -6.83812e+15 3.14933e+15 1.17241e+16)
(1.75962e+16 5.84096e+15 6.0375e+15 -1.59414e+15 7.56041e+15 1.90141e+15)
(2.16436e+16 6.42603e+15 -3.15137e+15 9.22716e+15 9.90713e+14 5.64468e+15)
(1.47419e+16 8.24292e+15 7.42374e+15 1.21567e+16 3.36011e+15 1.29597e+16)
(8.57497e+15 7.93044e+15 -8.99851e+15 8.21149e+14 2.35876e+14 4.42238e+15)
(1.37878e+16 1.50842e+16 1.38775e+16 1.05586e+16 1.16187e+16 6.07783e+15)
(1.5727e+16 1.53967e+16 -1.40046e+16 1.76664e+16 -2.406e+15 4.75048e+15)
(-1.49396e+16 4.01987e+15 4.22871e+15 -2.44544e+15 2.01837e+15 -2.86313e+15)
(-1.65882e+16 4.74198e+15 -7.33661e+15 -7.14858e+15 -4.37732e+14 -7.14433e+15)
(-2.61722e+16 6.4698e+15 7.22723e+15 -5.93581e+15 5.94551e+15 -9.42356e+15)
(-2.74789e+16 5.74769e+15 -9.6727e+15 -4.18794e+15 -1.97276e+15 -1.2038e+16)
)
;
    }
    right
    {
        type            calculated;
        value           nonuniform List<symmTensor> 
16
(
(1.39173e+16 4.90711e+15 -3.31138e+15 1.10149e+16 -1.86016e+15 7.82342e+15)
(3.82152e+16 1.40834e+16 -2.16503e+15 2.87675e+16 -3.43605e+14 1.71186e+16)
(4.59863e+16 1.58713e+16 3.44107e+15 3.26875e+16 3.54522e+15 2.30104e+16)
(2.19745e+16 6.69505e+15 6.27598e+15 1.52209e+16 2.89918e+15 1.43828e+16)
(4.91722e+16 1.20367e+16 -1.3261e+16 2.40753e+16 -3.90405e+15 2.07191e+16)
(1.00893e+17 2.04257e+16 7.47036e+14 4.44504e+16 -3.36839e+14 4.01155e+16)
(6.27512e+16 2.53393e+15 1.46995e+16 1.70706e+16 4.27448e+15 2.45165e+16)
(1.1821e+16 -5.85511e+15 5.63784e+15 -2.51402e+15 -6.91528e+14 6.96468e+15)
(1.33884e+16 -1.38884e+16 -5.72096e+15 -5.54767e+15 -3.3294e+15 3.10572e+15)
(4.36444e+16 -1.88577e+16 -4.42455e+15 2.82921e+15 -5.1247e+15 1.34075e+16)
(-4.36867e+15 -1.70872e+16 1.84857e+16 -9.79581e+15 5.0832e+15 -2.87877e+15)
(-3.70755e+16 -1.21179e+16 -1.03108e+16 -2.06235e+16 -5.76519e+15 -1.88992e+16)
(-1.49396e+16 4.01987e+15 4.22871e+15 -2.44544e+15 2.01837e+15 -2.86313e+15)
(-1.65882e+16 4.74198e+15 -7.33661e+15 -7.14858e+15 -4.37732e+14 -7.14433e+15)
(-2.61722e+16 6.4698e+15 7.22723e+15 -5.93581e+15 5.94551e+15 -9.42356e+15)
(-2.74789e+16 5.74769e+15 -9.6727e+15 -4.18794e+15 -1.97276e+15 -1.2038e+16)
)
;
    }
    back
    {
        type            calculated;
        value           nonuniform List<symmTensor> 
16
(
(-1.60728e+16 2.5568e+15 -6.42492e+15 -3.84332e+14 -1.41933e+15 -8.12057e+15)
(-2.07278e+16 3.22993e+15 -2.99683e+13 4.08898e+15 3.31006e+15 -5.41562e+15)
(1.70651e+15 -1.18073e+15 2.59727e+15 6.20331e+15 4.28264e+15 4.11163e+15)
(8.0285e+15 -1.85386e+15 -2.80354e+15 3.397e+15 4.87783e+14 5.29634e+15)
(2.50176e+16 6.95693e+15 -2.23223e+15 1.5759e+16 -1.09071e+15 9.73591e+15)
(4.13299e+16 1.09227e+16 5.2888e+15 2.74058e+16 2.80203e+15 1.99837e+16)
(1.08617e+16 1.87424e+15 7.39949e+15 4.91987e+15 4.52531e+15 7.04739e+15)
(-5.238e+15 -2.09151e+15 -2.09712e+15 -6.51447e+15 -1.27328e+15 -2.70456e+15)
(-1.40095e+16 -6.213e+14 -1.831e+15 -2.42064e+15 -1.53154e+15 -3.89893e+15)
(-3.85489e+16 9.91785e+14 -4.72249e+15 -7.41073e+15 -8.5164e+14 -1.69772e+16)
(-4.32583e+16 2.49778e+15 -1.64398e+15 -1.07674e+16 3.78789e+15 -1.62252e+16)
(-1.98873e+16 8.84699e+14 2.25905e+15 -6.94567e+15 1.13813e+15 -5.87324e+15)
(1.39173e+16 4.90711e+15 -3.31138e+15 1.10149e+16 -1.86016e+15 7.82342e+15)
(3.82152e+16 1.40834e+16 -2.16503e+15 2.87675e+16 -3.43605e+14 1.71186e+16)
(4.59863e+16 1.58713e+16 3.44107e+15 3.26875e+16 3.54522e+15 2.30104e+16)
(2.19745e+16 6.69505e+15 6.27598e+15 1.52209e+16 2.89918e+15 1.43828e+16)
)
;
    }
    top
    {
        type            calculated;
        value           nonuniform List<symmTensor> 
16
(
(8.0285e+15 -1.85386e+15 -2.80354e+15 3.397e+15 4.87783e+14 5.29634e+15)
(-5.238e+15 -2.09151e+15 -2.09712e+15 -6.51447e+15 -1.27328e+15 -2.70456e+15)
(-1.98873e+16 8.84699e+14 2.25905e+15 -6.94567e+15 1.13813e+15 -5.87324e+15)
(2.19745e+16 6.69505e+15 6.27598e+15 1.52209e+16 2.89918e+15 1.43828e+16)
(6.75574e+15 3.20982e+15 -2.70372e+15 5.05804e+15 -4.44753e+13 7.62211e+15)
(3.47639e+15 6.53684e+15 -9.51119e+14 3.87842e+15 -1.79141e+15 6.59863e+15)
(-2.05866e+16 -7.89176e+15 1.28555e+15 -1.61772e+16 -2.43846e+15 -6.54232e+15)
(1.1821e+16 -5.85511e+15 5.63784e+15 -2.51402e+15 -6.91528e+14 6.96468e+15)
(-5.82909e+15 -7.13661e+14 1.81512e+15 8.73075e+14 -5.25414e+13 -1.6444e+14)
(2.81696e+16 -7.43326e+14 -2.00537e+15 1.45138e+16 -4.42462e+15 1.27595e+16)
(1.10069e+16 -1.11726e+16 -1.49781e+16 -9.46886e+14 -1.01373e+16 6.06234e+13)
(-3.70755e+16 -1.21179e+16 -1.03108e+16 -2.06235e+16 -5.76519e+15 -1.88992e+16)
(-6.94558e+15 -2.45702e+15 1.71531e+15 -6.36287e+15 1.42395e+15 -4.87945e+15)
(2.16436e+16 6.42603e+15 -3.15137e+15 9.22716e+15 9.90713e+14 5.64468e+15)
(1.5727e+16 1.53967e+16 -1.40046e+16 1.76664e+16 -2.406e+15 4.75048e+15)
(-2.74789e+16 5.74769e+15 -9.6727e+15 -4.18794e+15 -1.97276e+15 -1.2038e+16)
)
;
    }
}


// ************************************************************************* //
