/*--------------------------------*- C++ -*----------------------------------*\
| =========                 |                                                 |
| \\      /  F ield         | OpenFOAM: The Open Source CFD Toolbox           |
|  \\    /   O peration     | Version:  v2012                                 |
|   \\  /    A nd           | Website:  www.openfoam.com                      |
|    \\/     M anipulation  |                                                 |
\*---------------------------------------------------------------------------*/
FoamFile
{
    version     2.0;
    format      ascii;
    class       volScalarField;
    location    "1";
    object      sigmaHyd;
}
// * * * * * * * * * * * * * * * * * * * * * * * * * * * * * * * * * * * * * //

dimensions      [1 -1 -2 0 0 0 0];


internalField   nonuniform List<scalar> 
64
(
8.19258e+15
7.35149e+15
-4.00715e+15
-5.57395e+15
-1.68375e+16
-2.95731e+16
-7.60966e+15
4.81901e+15
6.77635e+15
2.09789e+16
2.3417e+16
1.09021e+16
-1.09185e+16
-2.80338e+16
-3.38947e+16
-1.71927e+16
2.95702e+16
4.39506e+16
1.52152e+16
-6.47863e+15
-1.01752e+16
-2.87178e+16
-1.68469e+16
-4.65115e+15
6.84426e+15
1.10818e+16
1.88481e+16
1.44354e+16
-3.13222e+16
-6.18196e+16
-3.47794e+16
-5.42388e+15
3.44217e+16
4.79719e+16
2.59779e+16
1.70682e+15
-5.62147e+15
-9.11564e+14
-3.7538e+15
-1.8481e+16
9.4513e+15
1.10261e+16
-6.04255e+15
-3.37355e+15
-3.64882e+15
-1.99604e+16
5.68108e+15
2.55328e+16
2.55003e+16
2.48725e+16
1.12501e+16
6.06263e+15
-1.24915e+16
-1.02649e+16
-5.96782e+15
-1.21718e+16
-1.32861e+16
-4.60616e+15
-1.01414e+16
-1.27146e+16
6.74939e+15
1.02937e+16
1.38439e+16
1.45683e+16
)
;

boundaryField
{
    bottom
    {
        type            zeroGradient;
    }
    left
    {
        type            zeroGradient;
    }
    front
    {
        type            zeroGradient;
    }
    right
    {
        type            zeroGradient;
    }
    back
    {
        type            zeroGradient;
    }
    top
    {
        type            zeroGradient;
    }
}


// ************************************************************************* //
