/*--------------------------------*- C++ -*----------------------------------*\
| =========                 |                                                 |
| \\      /  F ield         | OpenFOAM: The Open Source CFD Toolbox           |
|  \\    /   O peration     | Version:  v2012                                 |
|   \\  /    A nd           | Website:  www.openfoam.com                      |
|    \\/     M anipulation  |                                                 |
\*---------------------------------------------------------------------------*/
FoamFile
{
    version     2.0;
    format      ascii;
    class       volScalarField;
    location    "1";
    object      sigmaEq;
}
// * * * * * * * * * * * * * * * * * * * * * * * * * * * * * * * * * * * * * //

dimensions      [1 -1 -2 0 0 0 0];


internalField   nonuniform List<scalar> 
64
(
1.82785e+16
2.31194e+16
9.72796e+15
7.13198e+15
1.84792e+16
2.85954e+16
1.62303e+16
6.5163e+15
1.17306e+16
2.89008e+16
3.12728e+16
1.42849e+16
1.19745e+16
3.07319e+16
3.50446e+16
1.81611e+16
3.73491e+16
5.0467e+16
2.90545e+16
7.6124e+15
4.65447e+16
6.97324e+16
7.24505e+16
1.22142e+16
4.89049e+16
5.78181e+16
4.71027e+16
1.90891e+16
4.16327e+16
6.85775e+16
5.02427e+16
1.89499e+16
4.30495e+16
5.88387e+16
3.38458e+16
7.10367e+15
4.25299e+16
4.75986e+16
5.86404e+16
1.69106e+16
5.54844e+16
8.8979e+16
8.58241e+16
3.85703e+16
3.13002e+16
5.05013e+16
4.49261e+16
3.40763e+16
2.69047e+16
3.0808e+16
9.51119e+15
6.03532e+15
2.43568e+16
3.09339e+16
2.6393e+16
1.9186e+16
2.02063e+16
2.18387e+16
4.13558e+16
3.82421e+16
1.62913e+16
1.7851e+16
2.71922e+16
2.85083e+16
)
;

boundaryField
{
    bottom
    {
        type            calculated;
        value           nonuniform List<scalar> 
16
(
1.82785e+16
1.84792e+16
1.17306e+16
1.19745e+16
3.73491e+16
4.65447e+16
4.89049e+16
4.16327e+16
4.30495e+16
4.25299e+16
5.54844e+16
3.13002e+16
2.69047e+16
2.43568e+16
2.02063e+16
1.62913e+16
)
;
    }
    left
    {
        type            calculated;
        value           nonuniform List<scalar> 
16
(
1.82785e+16
2.31194e+16
9.72796e+15
7.13198e+15
3.73491e+16
5.0467e+16
2.90545e+16
7.6124e+15
4.30495e+16
5.88387e+16
3.38458e+16
7.10367e+15
2.69047e+16
3.0808e+16
9.51119e+15
6.03532e+15
)
;
    }
    front
    {
        type            calculated;
        value           nonuniform List<scalar> 
16
(
2.69047e+16
3.0808e+16
9.51119e+15
6.03532e+15
2.43568e+16
3.09339e+16
2.6393e+16
1.9186e+16
2.02063e+16
2.18387e+16
4.13558e+16
3.82421e+16
1.62913e+16
1.7851e+16
2.71922e+16
2.85083e+16
)
;
    }
    right
    {
        type            calculated;
        value           nonuniform List<scalar> 
16
(
1.19745e+16
3.07319e+16
3.50446e+16
1.81611e+16
4.16327e+16
6.85775e+16
5.02427e+16
1.89499e+16
3.13002e+16
5.05013e+16
4.49261e+16
3.40763e+16
1.62913e+16
1.7851e+16
2.71922e+16
2.85083e+16
)
;
    }
    back
    {
        type            calculated;
        value           nonuniform List<scalar> 
16
(
1.82785e+16
2.31194e+16
9.72796e+15
7.13198e+15
1.84792e+16
2.85954e+16
1.62303e+16
6.5163e+15
1.17306e+16
2.89008e+16
3.12728e+16
1.42849e+16
1.19745e+16
3.07319e+16
3.50446e+16
1.81611e+16
)
;
    }
    top
    {
        type            calculated;
        value           nonuniform List<scalar> 
16
(
7.13198e+15
6.5163e+15
1.42849e+16
1.81611e+16
7.6124e+15
1.22142e+16
1.90891e+16
1.89499e+16
7.10367e+15
1.69106e+16
3.85703e+16
3.40763e+16
6.03532e+15
1.9186e+16
3.82421e+16
2.85083e+16
)
;
    }
}


// ************************************************************************* //
