/*--------------------------------*- C++ -*----------------------------------*\
| =========                 |                                                 |
| \\      /  F ield         | OpenFOAM: The Open Source CFD Toolbox           |
|  \\    /   O peration     | Version:  v2012                                 |
|   \\  /    A nd           | Website:  www.openfoam.com                      |
|    \\/     M anipulation  |                                                 |
\*---------------------------------------------------------------------------*/
FoamFile
{
    version     2.0;
    format      ascii;
    class       volSymmTensorField;
    location    "0.2";
    object      epsilon;
}
// * * * * * * * * * * * * * * * * * * * * * * * * * * * * * * * * * * * * * //

dimensions      [0 0 0 0 0 0 0];


internalField   nonuniform List<symmTensor> 
444
(
(3.04925e-05 -1.78851e-05 -2.71051e-20 -2.33735e-05 1.69407e-21 0)
(6.7934e-05 -8.07863e-06 1.35525e-20 -2.91697e-05 -1.35525e-20 0)
(3.41844e-05 -1.10622e-05 -4.06576e-20 -2.58686e-05 6.77626e-21 0)
(2.88253e-05 -4.58212e-06 8.13152e-20 -8.22456e-06 -8.47033e-22 0)
(5.35844e-05 -4.31362e-06 0 -2.85011e-05 -3.38813e-21 0)
(1.63796e-05 -6.9018e-06 -5.42101e-20 -5.44665e-06 1.05879e-22 0)
(1.81465e-05 -7.09249e-06 0 -6.01817e-06 0 0)
(2.92048e-05 -4.88258e-06 0 -7.99081e-06 0 0)
(5.53331e-05 -8.36701e-06 0 -2.87936e-05 -2.03288e-20 0)
(3.05861e-05 -1.75704e-06 -2.71051e-20 -7.4284e-06 0 0)
(3.59355e-05 -1.90583e-06 0 -1.45867e-05 3.38813e-21 0)
(4.9662e-05 -5.78512e-06 1.35525e-20 -2.47281e-05 -1.01644e-20 0)
(6.11397e-06 -1.90767e-06 -2.71051e-20 -1.15525e-05 4.23516e-22 0)
(7.69327e-06 -4.71714e-06 0 -1.86133e-05 -4.23516e-22 0)
(4.24938e-05 -1.1083e-05 -2.71051e-20 -2.02032e-05 6.77626e-21 0)
(3.54645e-05 -4.32996e-06 -2.71051e-20 -1.43877e-05 0 0)
(3.99561e-05 -3.86095e-06 0 -1.67311e-05 -3.38813e-21 0)
(5.6542e-05 8.69222e-06 6.77626e-21 -2.67807e-05 -1.35525e-20 0)
(3.40069e-05 -5.30298e-06 0 -1.22784e-05 -1.69407e-21 0)
(4.44885e-05 -8.78684e-06 4.06576e-20 -1.86704e-05 -1.01644e-20 0)
(7.0649e-05 6.87592e-06 0 -2.45603e-05 0 0)
(3.08581e-05 -3.11625e-06 2.71051e-20 -8.20747e-06 4.23516e-22 0)
(6.00619e-05 7.38515e-06 1.35525e-20 -2.88362e-05 0 0)
(2.60534e-05 -4.14447e-06 -2.71051e-20 -6.64533e-06 8.47033e-22 0)
(5.88838e-05 8.12868e-06 0 -1.79534e-05 -4.06576e-20 0)
(2.14884e-05 -1.18e-05 -1.35525e-20 -2.03949e-05 1.69407e-21 0)
(3.55675e-05 -1.39751e-06 -2.71051e-20 -1.52761e-05 0 0)
(3.16252e-05 -2.00413e-06 2.71051e-20 -7.90014e-06 0 0)
(3.2506e-05 -3.62652e-06 -5.42101e-20 -1.07495e-05 0 0)
(3.06268e-05 -1.7063e-06 -2.71051e-20 -6.43984e-06 0 0)
(3.46109e-05 -5.3994e-06 5.42101e-20 -1.30788e-05 1.69407e-21 0)
(3.24901e-05 -3.21464e-06 0 -9.23511e-06 0 0)
(2.36916e-05 -4.40471e-06 5.42101e-20 -6.34739e-06 -1.05879e-22 0)
(5.07522e-05 -1.47985e-05 -2.71051e-20 -2.61416e-05 2.03288e-20 0)
(7.1744e-05 -2.21034e-06 3.38813e-21 -2.32468e-05 1.35525e-20 0)
(8.21377e-05 -8.38064e-06 0 -2.93301e-05 1.35525e-20 0)
(9.02748e-05 1.30186e-06 1.69407e-21 -2.99835e-05 0 0)
(2.24811e-05 -1.11164e-05 5.42101e-20 -2.50466e-05 -1.69407e-21 0)
(4.57985e-05 -8.95845e-06 -6.77626e-20 -1.98815e-05 3.38813e-21 0)
(2.2176e-05 -1.67807e-06 -2.71051e-20 -5.48434e-06 1.05879e-22 0)
(4.41213e-05 -7.96616e-06 0 -1.92447e-05 1.69407e-21 0)
(3.68616e-05 -5.18848e-06 1.35525e-19 -1.42932e-05 -8.47033e-21 0)
(3.05934e-05 -1.85052e-06 5.42101e-20 -7.29707e-06 4.23516e-22 0)
(3.62604e-05 -2.85009e-06 0 -1.53417e-05 -1.69407e-21 0)
(2.73681e-05 -1.67695e-05 -2.03288e-20 -1.30553e-05 2.03288e-20 0)
(4.7678e-05 -2.5116e-05 6.77626e-21 -1.79853e-05 -6.77626e-21 0)
(1.67656e-05 -1.12811e-05 -2.71051e-20 -1.23592e-05 6.77626e-21 0)
(6.82749e-05 -2.21338e-05 6.77626e-21 -2.73501e-05 0 0)
(1.38904e-05 -7.94804e-06 -5.42101e-20 -6.03678e-06 4.23516e-22 0)
(9.38225e-06 -5.31216e-07 1.35525e-20 -1.82885e-05 5.0822e-21 0)
(2.7535e-05 -5.15904e-06 -2.71051e-20 -7.89812e-06 1.27055e-21 0)
(4.25856e-05 -5.80905e-06 -1.35525e-20 -1.86423e-05 3.38813e-21 0)
(4.05886e-05 -4.18667e-06 0 -1.7176e-05 -3.38813e-21 0)
(3.48172e-05 -1.08812e-06 -2.71051e-20 -1.4742e-05 -3.38813e-21 0)
(5.11069e-05 7.57379e-06 0 -2.0999e-05 -4.06576e-20 0)
(2.38348e-05 -1.46099e-06 0 -5.78168e-06 3.17637e-22 0)
(2.13408e-05 -1.68243e-06 -8.13152e-20 -5.22806e-06 2.11758e-22 0)
(4.57355e-05 -8.96418e-06 -2.71051e-20 -2.04993e-05 6.77626e-21 0)
(5.10689e-05 -6.71738e-06 -1.35525e-20 -2.57732e-05 6.77626e-21 0)
(2.78897e-05 -5.5968e-06 -2.71051e-20 -7.46808e-06 -8.47033e-22 0)
(1.54269e-05 -7.61022e-06 -2.71051e-20 -7.08491e-06 0 0)
(3.54085e-05 -4.63651e-06 1.35525e-19 -1.33906e-05 -8.47033e-21 0)
(3.31872e-05 -4.06631e-06 2.71051e-20 -1.04686e-05 -1.69407e-21 0)
(4.52656e-05 9.48e-06 3.38813e-21 -1.72582e-05 -4.06576e-20 0)
(5.60756e-05 -3.02165e-06 6.77626e-21 -3.19808e-05 0 0)
(4.48989e-05 -4.38604e-06 0 -1.85635e-05 0 0)
(3.28072e-05 -5.1896e-06 0 -1.11014e-05 3.38813e-21 0)
(1.06518e-05 5.51599e-06 -1.35525e-20 -2.83171e-05 2.96462e-21 0)
(5.45655e-05 -2e-06 -1.35525e-20 -2.70918e-05 -1.35525e-20 0)
(6.27802e-05 -5.4197e-06 6.77626e-21 -2.81063e-05 -1.35525e-20 0)
(3.67995e-05 -1.57794e-05 -1.35525e-20 -2.46815e-05 0 0)
(4.70303e-05 -8.03051e-06 -2.71051e-20 -2.23188e-05 6.77626e-21 0)
(1.18462e-05 -1.28089e-05 2.71051e-20 -1.7246e-05 8.47033e-22 0)
(1.22335e-05 -6.80593e-06 5.42101e-20 -2.68018e-05 -1.69407e-21 0)
(6.71719e-05 -3.03571e-07 0 -3.23642e-05 6.77626e-21 0)
(4.85794e-05 -6.37369e-06 5.42101e-20 -2.17737e-05 -2.03288e-20 0)
(5.2634e-05 -5.41621e-06 1.35525e-20 -2.4879e-05 -1.35525e-20 0)
(5.26106e-05 -3.39859e-06 2.71051e-20 -2.3016e-05 1.01644e-20 0)
(5.68179e-05 -2.23109e-06 2.71051e-20 -2.58312e-05 0 0)
(5.68147e-05 -7.30519e-07 1.35525e-20 -2.45193e-05 0 0)
(3.78867e-05 -3.49511e-06 1.0842e-19 -1.5398e-05 -6.77626e-21 0)
(5.77024e-05 5.71945e-06 5.0822e-21 -2.07785e-05 -1.35525e-20 0)
(7.07207e-05 3.65833e-06 6.77626e-21 -3.02528e-05 -1.35525e-20 0)
(6.21413e-05 -1.48655e-07 0 -2.70014e-05 6.77626e-21 0)
(5.13682e-05 -1.1462e-05 -1.35525e-20 -3.06025e-05 1.01644e-20 0)
(3.71284e-05 -2.10907e-06 -2.71051e-20 -1.5216e-05 6.77626e-21 0)
(6.18248e-05 1.13424e-06 0 -2.70718e-05 6.77626e-21 0)
(3.0202e-05 -5.41349e-07 2.71051e-20 -4.57381e-06 2.11758e-22 0)
(5.85392e-05 9.91545e-06 6.77626e-21 -2.63735e-05 0 0)
(5.60791e-05 5.99824e-06 6.77626e-21 -2.6301e-05 -1.35525e-20 0)
(2.58769e-05 -1.76589e-05 2.71051e-20 -1.86027e-05 0 0)
(5.5961e-05 3.4695e-06 -1.35525e-20 -2.39666e-05 6.77626e-21 0)
(2.00676e-05 -1.3264e-05 4.06576e-20 -1.90647e-05 2.5411e-21 0)
(5.77478e-05 4.44192e-07 -1.35525e-20 -2.48993e-05 6.77626e-21 0)
(6.5955e-05 -1.34817e-06 -3.38813e-21 -1.94718e-05 0 0)
(7.2202e-05 3.82309e-06 1.69407e-21 -2.30428e-05 0 0)
(5.70022e-05 4.1122e-06 2.71051e-20 -2.88994e-05 -6.77626e-21 0)
(5.01294e-05 -5.07741e-06 -4.06576e-20 -2.1447e-05 1.01644e-20 0)
(4.99189e-05 -2.12995e-06 0 -2.15301e-05 3.38813e-21 0)
(5.25259e-05 4.62266e-06 -6.77626e-21 -2.24189e-05 2.03288e-20 0)
(5.49013e-05 -1.50928e-06 0 -2.37034e-05 -1.01644e-20 0)
(4.34323e-05 3.5125e-06 0 -1.85331e-05 -1.35525e-20 0)
(5.49064e-05 -3.92105e-06 2.71051e-20 -2.43319e-05 3.38813e-21 0)
(4.68176e-05 4.88905e-06 -3.38813e-21 -2.05681e-05 0 0)
(5.68275e-05 4.80096e-06 3.38813e-20 -2.51399e-05 -2.03288e-20 0)
(4.87258e-05 5.32637e-06 6.77626e-21 -2.07564e-05 6.77626e-21 0)
(5.92142e-05 2.59181e-06 0 -2.60527e-05 -6.77626e-21 0)
(5.48922e-05 -1.94432e-06 1.35525e-20 -2.34441e-05 -6.77626e-21 0)
(6.06904e-05 -1.0643e-06 -2.71051e-20 -2.61723e-05 3.38813e-21 0)
(5.415e-05 3.90267e-06 0 -2.38425e-05 6.77626e-21 0)
(5.81068e-05 -1.63449e-06 -1.35525e-20 -2.49165e-05 1.35525e-20 0)
(5.57162e-05 1.72183e-06 2.71051e-20 -2.61773e-05 -2.03288e-20 0)
(4.04816e-05 -8.72782e-06 1.35525e-20 -1.60389e-05 -3.38813e-21 0)
(3.78854e-05 -1.02271e-05 -1.35525e-20 -1.62075e-05 3.38813e-21 0)
(5.7589e-05 1.95327e-06 0 -2.47666e-05 -6.77626e-21 0)
(5.64066e-05 4.09885e-06 0 -1.78386e-05 1.35525e-20 0)
(3.19e-05 -1.42581e-05 1.35525e-20 -1.57743e-05 -8.47033e-22 0)
(5.25204e-05 -1.96118e-06 1.35525e-20 -2.26771e-05 -3.38813e-21 0)
(5.02555e-05 -6.8817e-06 4.06576e-20 -2.27109e-05 -1.69407e-21 0)
(3.944e-05 4.89272e-06 -3.38813e-21 -1.65647e-05 -2.71051e-20 0)
(1.87652e-05 -1.87217e-06 -2.71051e-20 -4.73371e-06 2.11758e-22 0)
(4.94371e-05 -8.47399e-06 2.71051e-20 -3.00651e-05 3.38813e-21 0)
(1.32919e-05 -2.28051e-06 -4.06576e-20 -5.00253e-06 3.17637e-22 0)
(5.0211e-05 -4.58904e-06 1.35525e-20 -2.18398e-05 6.77626e-21 0)
(3.17535e-05 3.54562e-06 1.69407e-21 -1.26334e-05 -1.35525e-20 0)
(3.36684e-05 -2.75753e-06 -5.42101e-20 -1.18477e-05 6.77626e-21 0)
(1.3775e-05 -2.80529e-06 -1.35525e-20 -4.53025e-06 1.05879e-22 0)
(1.64596e-05 -2.11369e-06 -2.71051e-20 -4.52026e-06 0 0)
(2.84462e-05 -1.57569e-05 4.06576e-20 -1.4991e-05 -1.69407e-21 0)
(2.56811e-05 -3.73761e-06 8.13152e-20 -7.02567e-06 -4.23516e-22 0)
(2.887e-05 -2.91789e-06 2.71051e-20 -7.51228e-06 -4.23516e-22 0)
(1.03722e-05 -3.2783e-06 -2.71051e-20 -5.32112e-06 0 0)
(3.77624e-05 -8.96693e-06 2.71051e-20 -1.58315e-05 0 0)
(3.45345e-05 -3.70151e-06 5.42101e-20 -1.34226e-05 -3.38813e-21 0)
(2.88176e-05 -2.70229e-06 2.71051e-20 -7.74114e-06 4.23516e-22 0)
(2.8843e-05 -8.8314e-07 -2.71051e-20 -7.35911e-06 -2.11758e-22 0)
(3.533e-05 -3.04714e-06 0 -1.37148e-05 0 0)
(3.44744e-05 -2.31052e-06 -1.0842e-19 -1.31397e-05 6.77626e-21 0)
(1.68405e-05 -2.23343e-06 2.71051e-20 -4.50892e-06 0 0)
(2.4362e-05 -1.35419e-06 -5.42101e-20 -6.08075e-06 2.11758e-22 0)
(2.56812e-05 -1.2675e-06 0 -6.42038e-06 2.11758e-22 0)
(2.75373e-05 -3.41611e-06 -2.71051e-20 -7.12245e-06 -4.23516e-22 0)
(3.44018e-05 -2.06839e-06 -2.71051e-20 -1.37682e-05 -1.69407e-21 0)
(3.37856e-05 -4.25267e-06 1.0842e-19 -1.19375e-05 -5.0822e-21 0)
(3.38484e-05 -2.70317e-06 2.71051e-20 -1.2599e-05 -1.69407e-21 0)
(4.04496e-05 -8.4116e-06 -4.06576e-20 -1.75811e-05 5.0822e-21 0)
(2.79442e-05 -1.01384e-06 5.42101e-20 -7.21707e-06 0 0)
(3.43562e-05 -3.81537e-06 -8.13152e-20 -1.26338e-05 0 0)
(3.34238e-05 -1.21525e-06 2.71051e-20 -1.18126e-05 1.69407e-21 0)
(3.32287e-05 -1.26349e-06 0 -1.10128e-05 0 0)
(3.50643e-05 -1.95123e-07 2.71051e-20 -1.49121e-05 0 0)
(3.28205e-05 -1.44878e-06 0 -1.05392e-05 8.47033e-22 0)
(3.4011e-05 -1.00508e-06 -2.71051e-20 -1.31438e-05 0 0)
(2.99192e-05 -6.20807e-07 -2.71051e-20 -7.41057e-06 -2.11758e-22 0)
(3.39453e-05 -1.05126e-06 8.13152e-20 -1.27854e-05 -3.38813e-21 0)
(3.22193e-05 -1.23173e-06 8.13152e-20 -9.09214e-06 -1.69407e-21 0)
(3.21189e-05 -1.21822e-06 -2.71051e-20 -8.60049e-06 8.47033e-22 0)
(3.06167e-05 -3.33196e-07 -2.71051e-20 -6.96938e-06 4.23516e-22 0)
(3.05648e-05 -6.3797e-07 -2.71051e-20 -6.60017e-06 1.05879e-22 0)
(3.46435e-05 -7.59605e-07 2.71051e-20 -1.42238e-05 -5.0822e-21 0)
(2.92871e-05 -8.84758e-07 0 -7.5014e-06 -2.11758e-22 0)
(2.63289e-05 -1.16034e-06 -8.13152e-20 -6.75999e-06 0 0)
(3.01745e-05 -7.73788e-07 -2.71051e-20 -7.31888e-06 0 0)
(5.14963e-05 -2.07715e-06 -1.35525e-20 -2.1986e-05 3.38813e-21 0)
(1.96569e-05 -1.935e-06 -2.71051e-20 -4.95841e-06 1.05879e-22 0)
(3.72607e-05 -1.00998e-06 -2.71051e-20 -1.57131e-05 1.01644e-20 0)
(3.9347e-05 -1.29976e-06 2.71051e-20 -1.67797e-05 0 0)
(4.17594e-05 -1.49271e-06 -2.71051e-20 -1.77175e-05 0 0)
(3.12452e-05 -1.1e-06 2.71051e-20 -7.18541e-06 0 0)
(3.83495e-05 -1.30455e-06 0 -1.64306e-05 3.38813e-21 0)
(4.01198e-05 -1.47513e-06 0 -1.72369e-05 6.77626e-21 0)
(4.01061e-05 -7.61189e-06 -1.35525e-20 -1.57693e-05 -1.69407e-21 0)
(3.51006e-05 -2.60882e-06 -8.13152e-20 -1.45333e-05 1.69407e-21 0)
(2.73936e-05 -1.04968e-06 2.71051e-20 -6.98715e-06 2.11758e-22 0)
(4.30977e-05 -6.7379e-06 2.71051e-20 -1.73548e-05 -1.18585e-20 0)
(2.73987e-05 -3.16979e-06 -2.71051e-20 -7.37675e-06 0 0)
(3.2055e-05 -4.69249e-06 0 -9.6103e-06 -8.47033e-22 0)
(3.10461e-05 -5.64883e-06 2.71051e-20 -9.40744e-06 8.47033e-22 0)
(3.99472e-05 -7.13892e-06 0 -1.71551e-05 5.0822e-21 0)
(3.17213e-05 -3.57665e-06 5.42101e-20 -8.99752e-06 -2.11758e-21 0)
(3.35062e-05 -7.91918e-06 5.42101e-20 -1.15414e-05 -4.23516e-21 0)
(3.71916e-05 -6.0279e-06 0 -1.56299e-05 1.69407e-21 0)
(3.11511e-05 -4.17403e-06 1.35525e-19 -8.66548e-06 -2.5411e-21 0)
(3.39586e-05 -6.80309e-06 0 -1.16512e-05 0 0)
(3.36452e-05 -1.16364e-05 -1.35525e-20 -1.29547e-05 -8.47033e-22 0)
(3.17302e-05 -4.92611e-06 -2.71051e-20 -9.70804e-06 0 0)
(3.14898e-05 -5.43164e-06 -2.71051e-20 -9.49927e-06 0 0)
(3.39736e-05 -8.41346e-06 0 -1.29234e-05 -3.38813e-21 0)
(3.22528e-05 -6.79287e-06 1.0842e-19 -1.0382e-05 -5.0822e-21 0)
(3.21022e-05 -6.30588e-06 0 -1.05623e-05 -8.47033e-22 0)
(3.27554e-05 -7.43986e-06 5.42101e-20 -1.17111e-05 0 0)
(3.56026e-05 -8.93099e-06 -2.71051e-20 -1.43113e-05 5.0822e-21 0)
(2.99741e-05 -1.06136e-05 -2.71051e-20 -1.0754e-05 1.69407e-21 0)
(3.14048e-05 -7.62676e-06 5.42101e-20 -1.01614e-05 -8.47033e-22 0)
(3.74293e-05 -7.52187e-06 -8.13152e-20 -1.57141e-05 0 0)
(3.9266e-05 -6.32879e-06 0 -1.55952e-05 0 0)
(3.74965e-05 -7.86002e-06 2.71051e-20 -1.42699e-05 -1.69407e-21 0)
(3.43263e-05 -1.07102e-05 -4.06576e-20 -1.27814e-05 8.47033e-22 0)
(2.89956e-05 -8.82114e-06 0 -9.36056e-06 8.47033e-22 0)
(3.52942e-05 -8.69219e-06 -2.71051e-20 -1.28646e-05 1.69407e-21 0)
(3.27673e-05 -1.08465e-05 0 -1.26532e-05 8.47033e-22 0)
(3.42023e-05 -7.04909e-06 -5.42101e-20 -1.30101e-05 3.38813e-21 0)
(2.74021e-05 -9.50315e-06 -1.0842e-19 -8.87804e-06 1.27055e-21 0)
(3.18566e-05 -9.70507e-06 2.71051e-20 -1.1058e-05 -2.5411e-21 0)
(2.56931e-05 -7.23496e-06 8.13152e-20 -7.71071e-06 -6.35275e-22 0)
(3.34937e-05 -9.64416e-06 2.71051e-20 -1.2757e-05 -8.47033e-22 0)
(3.73384e-05 -6.49974e-06 2.71051e-20 -1.42489e-05 -6.77626e-21 0)
(3.06869e-05 -1.0535e-05 -2.71051e-20 -1.08196e-05 1.69407e-21 0)
(3.48811e-05 -9.73048e-06 2.71051e-20 -1.27829e-05 -1.69407e-21 0)
(3.54757e-05 -7.54837e-06 0 -1.28555e-05 1.69407e-21 0)
(2.87192e-05 -8.91794e-06 -5.42101e-20 -9.29918e-06 1.27055e-21 0)
(3.21485e-05 -8.61992e-06 1.0842e-19 -1.14227e-05 0 0)
(3.56029e-05 -7.50308e-06 -2.71051e-20 -1.43361e-05 5.0822e-21 0)
(3.18642e-05 -1.20418e-05 -2.71051e-20 -1.27018e-05 3.38813e-21 0)
(3.76305e-05 -9.00996e-06 5.42101e-20 -1.43691e-05 -3.38813e-21 0)
(3.02341e-05 -8.14484e-06 2.71051e-20 -9.91001e-06 -8.47033e-22 0)
(3.05344e-05 -6.10079e-06 -2.71051e-20 -9.16786e-06 0 0)
(3.28229e-05 -8.83977e-06 0 -1.13588e-05 1.69407e-21 0)
(3.76236e-05 -1.0082e-05 -9.48677e-20 -1.45572e-05 8.47033e-21 0)
(5.36331e-05 -1.65229e-06 2.71051e-20 -2.49308e-05 -3.38813e-21 0)
(3.50531e-05 -1.15311e-05 6.77626e-20 -1.46028e-05 -3.38813e-21 0)
(3.53926e-05 -1.02578e-05 2.71051e-20 -1.43758e-05 -5.0822e-21 0)
(2.26358e-05 -1.49986e-05 -5.42101e-20 -1.19615e-05 2.96462e-21 0)
(3.12436e-05 -9.60084e-06 5.42101e-20 -1.10746e-05 8.47033e-22 0)
(3.0218e-05 -8.29036e-06 -5.42101e-20 -9.83805e-06 1.69407e-21 0)
(3.81327e-05 -1.25161e-05 -4.06576e-20 -1.75727e-05 -1.69407e-21 0)
(4.79889e-05 -5.30901e-06 2.71051e-20 -2.0781e-05 -6.77626e-21 0)
(4.23611e-05 -1.15886e-05 -2.71051e-20 -1.99749e-05 3.38813e-21 0)
(3.13671e-05 -7.25287e-06 -5.42101e-20 -1.03294e-05 2.5411e-21 0)
(3.83545e-05 -1.33748e-05 0 -1.90639e-05 1.69407e-21 0)
(2.6942e-05 -9.42219e-06 2.71051e-20 -8.89111e-06 -4.23516e-22 0)
(5.09641e-05 -4.41214e-06 -1.35525e-20 -2.34587e-05 0 0)
(3.75209e-05 -1.1083e-05 -4.06576e-20 -1.49036e-05 0 0)
(2.62467e-05 -1.28265e-05 1.35525e-20 -1.15778e-05 -1.69407e-21 0)
(4.08465e-05 -9.8399e-06 -4.06576e-20 -1.65792e-05 1.69407e-21 0)
(2.96422e-05 -1.445e-05 0 -1.37195e-05 -8.47033e-22 0)
(5.2543e-05 -4.82524e-06 5.42101e-20 -2.29e-05 0 0)
(4.14073e-05 -1.05621e-05 0 -1.7289e-05 5.0822e-21 0)
(3.75301e-05 -1.25563e-05 -6.77626e-20 -1.65827e-05 1.69407e-21 0)
(3.29162e-05 -1.24767e-05 -4.06576e-20 -1.33794e-05 8.47033e-22 0)
(3.45899e-05 -1.27548e-05 0 -1.49985e-05 3.38813e-21 0)
(3.7964e-05 -1.14759e-05 0 -1.66683e-05 -3.38813e-21 0)
(3.08169e-05 -1.32136e-05 -1.35525e-20 -1.29701e-05 -1.69407e-21 0)
(5.45224e-05 -2.87463e-06 -2.71051e-20 -2.65615e-05 1.35525e-20 0)
(2.2432e-05 -1.03253e-05 -1.35525e-20 -8.27911e-06 -4.23516e-22 0)
(5.60471e-05 3.08613e-07 -1.35525e-20 -2.80181e-05 0 0)
(3.41174e-05 -1.39156e-05 -2.71051e-20 -1.5851e-05 2.5411e-21 0)
(3.74932e-05 -1.18799e-05 1.35525e-20 -1.5499e-05 -3.38813e-21 0)
(3.2312e-05 -1.33144e-05 6.77626e-20 -1.43271e-05 -1.69407e-21 0)
(5.83602e-05 9.51537e-06 -2.03288e-20 -2.69312e-05 2.71051e-20 0)
(2.77931e-05 -1.20618e-05 -1.35525e-20 -1.08939e-05 2.5411e-21 0)
(2.93313e-05 -1.1271e-05 4.06576e-20 -1.08011e-05 0 0)
(4.10119e-05 -1.53019e-05 1.35525e-20 -2.82822e-05 1.69407e-21 0)
(4.21626e-05 -1.09295e-05 4.06576e-20 -1.83256e-05 -6.77626e-21 0)
(2.68334e-05 -1.25809e-05 6.77626e-20 -1.06273e-05 -2.96462e-21 0)
(2.48312e-05 -1.37928e-05 -1.35525e-20 -1.10798e-05 -4.23516e-22 0)
(2.53179e-05 -1.0164e-05 2.71051e-20 -8.48361e-06 0 0)
(2.85373e-05 -1.16334e-05 4.06576e-20 -1.06092e-05 -1.69407e-21 0)
(2.45119e-05 -9.46689e-06 0 -1.41898e-05 0 0)
(2.30251e-05 -1.06254e-05 -5.42101e-20 -8.16994e-06 8.47033e-22 0)
(4.74706e-05 -2.06157e-06 1.35525e-20 -2.03734e-05 3.38813e-21 0)
(3.37467e-05 -1.50342e-05 -5.42101e-20 -1.73905e-05 3.38813e-21 0)
(5.4518e-05 -1.26138e-06 -1.35525e-20 -2.39854e-05 6.77626e-21 0)
(7.97303e-05 -3.32176e-05 0 -1.98419e-05 0 0)
(4.64686e-05 -1.04088e-05 1.35525e-20 -2.71894e-05 3.38813e-21 0)
(4.48351e-05 -2.40684e-05 0 -1.14022e-05 1.35525e-20 0)
(3.78228e-05 -1.33604e-05 -1.35525e-20 -1.83101e-05 -1.69407e-21 0)
(2.48288e-05 -9.8077e-06 -4.06576e-20 -8.62598e-06 1.27055e-21 0)
(3.97635e-05 -1.4016e-05 -4.06576e-20 -2.38217e-05 5.0822e-21 0)
(4.90328e-05 -1.10818e-05 -2.71051e-20 -2.89429e-05 3.38813e-21 0)
(3.86258e-05 -1.42071e-05 -6.77626e-20 -2.09936e-05 3.38813e-21 0)
(4.41584e-05 -1.1629e-05 1.35525e-20 -2.25724e-05 0 0)
(4.68967e-05 -1.13141e-05 1.35525e-20 -2.57765e-05 -8.47033e-21 0)
(6.14996e-05 7.26218e-06 0 -2.53038e-05 -6.77626e-21 0)
(3.96768e-05 -1.4747e-05 1.35525e-20 -2.39211e-05 6.77626e-21 0)
(1.47427e-05 2.3118e-06 0 -2.39268e-05 3.38813e-21 0)
(4.08235e-05 -1.51648e-05 2.71051e-20 -2.68307e-05 -1.35525e-20 0)
(5.75984e-05 3.08371e-06 -6.77626e-21 -2.72331e-05 0 0)
(5.60114e-05 1.40853e-06 -1.35525e-20 -2.47338e-05 6.77626e-21 0)
(1.15871e-05 -1.40152e-05 0 -1.24463e-05 -1.69407e-21 0)
(4.78936e-05 -1.93295e-06 -2.71051e-20 -2.03636e-05 6.77626e-21 0)
(1.70676e-05 7.77406e-06 -1.35525e-20 -3.95948e-05 0 0)
(5.7749e-05 1.51719e-07 -6.77626e-21 -2.67289e-05 6.77626e-21 0)
(5.57283e-05 -5.97309e-06 -2.71051e-20 -3.15355e-05 0 0)
(0.000111822 -3.03117e-05 -6.77626e-21 -3.48207e-05 6.77626e-21 0)
(4.80817e-05 -9.5384e-06 -2.71051e-20 -2.95464e-05 0 0)
(4.98152e-05 8.18082e-06 -6.77626e-21 -1.71896e-05 5.42101e-20 0)
(3.34461e-05 -1.62892e-05 -2.71051e-20 -1.94246e-05 1.69407e-21 0)
(3.3251e-05 -1.73267e-05 0 -2.16428e-05 -1.69407e-21 0)
(5.69506e-05 1.15854e-05 -1.01644e-20 -2.32836e-05 0 0)
(6.32383e-05 9.11189e-06 -6.77626e-21 -2.71516e-05 -6.77626e-21 0)
(3.87362e-05 -1.3795e-05 5.42101e-20 -2.07517e-05 -3.38813e-21 0)
(3.09231e-05 -2.83823e-06 0 -7.67623e-06 -4.23516e-22 0)
(5.30654e-05 -6.51345e-06 -2.71051e-20 -2.90692e-05 -6.77626e-21 0)
(6.04572e-05 2.64623e-06 -1.35525e-20 -3.03158e-05 -6.77626e-21 0)
(2.58656e-05 -1.58816e-05 -1.35525e-20 -1.80577e-05 1.69407e-21 0)
(6.40474e-05 7.71574e-06 6.77626e-21 -3.02348e-05 1.35525e-20 0)
(2.55322e-05 -5.99993e-06 2.71051e-20 -7.39446e-06 4.23516e-22 0)
(4.14781e-05 -1.04738e-05 -6.77626e-20 -1.87677e-05 8.47033e-21 0)
(2.44711e-05 -1.35216e-05 4.06576e-20 -1.26778e-05 8.47033e-22 0)
(4.64834e-05 3.26154e-06 0 -1.64197e-05 -1.35525e-20 0)
(3.51614e-05 -1.56757e-06 -5.42101e-20 -1.41635e-05 5.0822e-21 0)
(3.49696e-05 -3.99895e-07 2.71051e-20 -1.50335e-05 0 0)
(3.03038e-05 -4.19528e-06 2.71051e-20 -8.12488e-06 -8.47033e-22 0)
(3.18452e-05 -1.49088e-05 -2.71051e-20 -1.85627e-05 4.23516e-21 0)
(5.60818e-05 7.85103e-06 -1.35525e-20 -2.48192e-05 1.35525e-20 0)
(2.99617e-05 -2.27724e-06 2.71051e-20 -7.83046e-06 -4.23516e-22 0)
(4.54434e-05 -8.0823e-06 -1.35525e-20 -2.02784e-05 1.69407e-21 0)
(2.05238e-05 -6.43848e-06 8.13152e-20 -5.52384e-06 -6.35275e-22 0)
(5.02584e-05 -8.34679e-06 1.35525e-20 -2.64772e-05 0 0)
(3.54558e-05 -6.27179e-06 -5.42101e-20 -1.30248e-05 6.77626e-21 0)
(2.345e-05 -4.63403e-06 -2.71051e-20 -6.05476e-06 4.23516e-22 0)
(6.10607e-05 -9.66095e-07 -2.71051e-20 -3.24592e-05 0 0)
(5.74296e-05 4.77007e-06 0 -2.80883e-05 -1.35525e-20 0)
(3.34629e-05 -1.78964e-05 -2.71051e-20 -2.39534e-05 0 0)
(2.95648e-05 -6.41605e-06 0 -8.98268e-06 -2.11758e-21 0)
(1.91371e-05 -1.15974e-05 -2.71051e-20 -8.08369e-06 4.23516e-22 0)
(3.13228e-05 -2.24617e-06 1.0842e-19 -7.56986e-06 -2.5411e-21 0)
(2.46776e-05 -7.56484e-06 0 -7.07422e-06 -1.27055e-21 0)
(5.45167e-05 1.10476e-05 -1.01644e-20 -2.37105e-05 -1.35525e-20 0)
(4.78605e-05 -9.08933e-06 1.35525e-20 -2.33994e-05 -1.01644e-20 0)
(3.10974e-05 -1.06414e-06 0 -6.85702e-06 -2.11758e-22 0)
(2.68989e-05 -1.73356e-05 0 -1.65599e-05 0 0)
(3.37603e-05 -5.58871e-06 2.71051e-20 -1.13435e-05 1.69407e-21 0)
(3.15807e-05 -8.47875e-07 -2.71051e-20 -7.39408e-06 4.23516e-22 0)
(5.2856e-05 -9.23034e-08 0 -1.83076e-05 -1.35525e-20 0)
(3.82528e-05 -3.76585e-06 0 -1.63357e-05 3.38813e-21 0)
(3.44717e-05 -6.08993e-07 0 -1.42409e-05 1.69407e-21 0)
(9.8131e-05 2.42195e-06 3.38813e-21 -3.72476e-05 -1.35525e-20 0)
(0.000139677 -1.67361e-05 3.38813e-21 -4.57048e-05 -1.35525e-20 0)
(4.25019e-05 -1.67706e-06 4.06576e-20 -1.82778e-05 -1.01644e-20 0)
(3.29232e-05 -3.0529e-06 -2.71051e-20 -1.00595e-05 3.38813e-21 0)
(3.32896e-05 -4.08511e-06 8.13152e-20 -1.1543e-05 0 0)
(3.66283e-05 -3.42085e-06 5.42101e-20 -1.44607e-05 1.69407e-21 0)
(4.42551e-05 -2.10257e-06 0 -1.91034e-05 0 0)
(6.79631e-05 2.76017e-06 -1.35525e-20 -2.51088e-05 2.71051e-20 0)
(4.07827e-05 -9.54011e-06 0 -1.78318e-05 5.0822e-21 0)
(2.979e-05 -2.35801e-06 -2.71051e-20 -7.66141e-06 4.23516e-22 0)
(4.84186e-05 -7.23457e-06 -4.06576e-20 -2.07771e-05 3.38813e-21 0)
(5.22711e-05 1.11382e-05 -1.01644e-20 -2.12031e-05 1.35525e-20 0)
(3.21274e-05 -2.58716e-06 -2.71051e-20 -8.72547e-06 1.69407e-21 0)
(3.60285e-05 -5.26595e-07 -2.71051e-20 -1.54067e-05 0 0)
(3.64127e-05 -8.20865e-07 0 -1.57037e-05 -6.77626e-21 0)
(5.27796e-05 8.3475e-06 2.03288e-20 -2.36867e-05 -2.03288e-20 0)
(2.15083e-05 -5.03902e-06 5.42101e-20 -5.56217e-06 4.23516e-22 0)
(4.97424e-05 -7.95866e-06 -1.35525e-20 -2.67928e-05 1.35525e-20 0)
(3.16773e-05 -3.46145e-06 -5.42101e-20 -8.60515e-06 1.69407e-21 0)
(4.41461e-05 -1.14331e-05 -1.35525e-20 -2.38218e-05 1.01644e-20 0)
(2.79841e-05 -9.25253e-08 0 -1.20035e-05 1.35525e-20 0)
(3.86808e-05 3.28772e-06 0 -1.59398e-05 2.71051e-20 0)
(3.00533e-05 -3.0563e-08 0 -3.91701e-06 1.05879e-22 0)
(3.06177e-05 -5.58782e-07 2.71051e-20 -5.53786e-06 -2.11758e-22 0)
(3.47322e-05 3.25113e-08 -2.71051e-20 -1.4829e-05 3.38813e-21 0)
(3.50165e-05 5.80792e-08 -2.71051e-20 -1.51644e-05 3.38813e-21 0)
(2.73646e-05 -7.09633e-06 -2.71051e-20 -7.76066e-06 0 0)
(6.66168e-06 -3.80134e-06 -2.71051e-20 -7.36697e-06 1.05879e-22 0)
(3.26539e-05 -5.24505e-06 1.35525e-19 -1.0675e-05 -1.69407e-21 0)
(3.3065e-05 -6.29755e-06 8.13152e-20 -1.18949e-05 0 0)
(5.43797e-05 -3.95768e-06 -1.35525e-20 -3.0879e-05 1.35525e-20 0)
(3.93027e-05 -6.00759e-06 8.13152e-20 -1.68959e-05 0 0)
(3.55062e-05 -6.02705e-06 8.13152e-20 -1.43273e-05 -5.0822e-21 0)
(3.92751e-05 -1.3121e-05 0 -2.68731e-05 1.69407e-21 0)
(1.12424e-05 -3.71909e-06 -4.06576e-20 -2.11175e-05 1.27055e-21 0)
(3.1921e-05 -2.95559e-06 0 -9.28162e-06 -1.69407e-21 0)
(2.94202e-05 -6.71922e-06 0 -8.7358e-06 -1.69407e-21 0)
(2.05465e-05 -1.09568e-05 -4.06576e-20 -8.67204e-06 1.05879e-21 0)
(4.2118e-05 -4.15286e-06 -5.42101e-20 -1.7767e-05 3.38813e-21 0)
(3.87754e-05 -5.09083e-06 0 -1.54205e-05 -3.38813e-21 0)
(2.35088e-05 -7.47852e-06 -2.71051e-20 -7.02352e-06 -2.11758e-22 0)
(3.09418e-05 -4.34154e-06 -2.71051e-20 -8.78011e-06 -8.47033e-22 0)
(3.8009e-05 -3.34766e-06 2.71051e-20 -1.5835e-05 -1.01644e-20 0)
(8.9111e-05 -1.66503e-05 1.69407e-21 -4.10024e-05 -1.35525e-20 0)
(3.06754e-05 -7.69816e-07 5.42101e-20 -5.63729e-06 -4.23516e-22 0)
(1.3418e-05 -7.94159e-06 6.77626e-20 -9.2811e-06 -1.05879e-21 0)
(5.38346e-05 9.03217e-06 1.01644e-20 -2.32728e-05 -2.71051e-20 0)
(7.04426e-05 4.44925e-06 3.38813e-21 -2.61958e-05 -2.71051e-20 0)
(7.51192e-06 -1.05575e-05 8.13152e-20 -1.42218e-05 -2.11758e-21 0)
(1.2551e-05 -7.83042e-06 2.71051e-20 -1.27509e-05 -2.11758e-22 0)
(3.12104e-05 -6.8142e-07 -5.42101e-20 -6.55016e-06 0 0)
(4.74839e-05 -9.60973e-06 -1.0842e-19 -2.34452e-05 1.01644e-20 0)
(5.21472e-05 -5.43245e-06 -2.71051e-20 -2.96672e-05 1.35525e-20 0)
(3.65988e-05 -4.61064e-06 8.13152e-20 -1.551e-05 -1.01644e-20 0)
(1.00668e-05 -3.43428e-06 1.35525e-20 -1.15298e-05 1.05879e-22 0)
(3.06571e-05 -5.23188e-07 0 -5.73208e-06 -1.05879e-22 0)
(1.13461e-05 -8.72849e-06 5.42101e-20 -7.31753e-06 0 0)
(2.82574e-05 -7.12636e-06 0 -8.51988e-06 1.27055e-21 0)
(3.05076e-05 -3.33612e-06 -5.42101e-20 -7.94181e-06 4.23516e-22 0)
(4.48317e-05 -1.80358e-06 2.71051e-20 -1.89734e-05 0 0)
(5.54428e-05 9.73186e-06 0 -2.41501e-05 -2.71051e-20 0)
(3.31613e-05 -3.05539e-06 0 -1.13411e-05 1.69407e-21 0)
(5.88649e-05 5.4138e-06 1.35525e-20 -3.08018e-05 0 0)
(2.10831e-05 -4.97106e-06 2.71051e-20 -5.5285e-06 2.11758e-22 0)
(4.34168e-05 -8.09505e-06 -5.42101e-20 -1.78221e-05 0 0)
(6.03131e-05 8.57783e-06 -3.38813e-21 -2.32735e-05 2.71051e-20 0)
(5.91321e-05 -6.66682e-06 0 -3.1669e-05 -6.77626e-21 0)
(2.99527e-05 -4.68935e-06 0 -8.52256e-06 -4.23516e-22 0)
(1.96698e-05 -7.57563e-06 2.71051e-20 -6.21875e-06 0 0)
(3.58268e-05 -6.45946e-07 2.71051e-20 -1.51162e-05 -3.38813e-21 0)
(1.68039e-05 -1.26348e-05 -1.35525e-20 -8.79481e-06 -2.11758e-22 0)
(4.14546e-05 -4.70908e-06 -1.35525e-20 -1.82324e-05 0 0)
(4.69992e-05 -5.41004e-06 -2.71051e-20 -2.02432e-05 0 0)
(8.70116e-05 -7.74759e-06 -1.69407e-21 -2.64184e-05 2.71051e-20 0)
(4.55985e-05 -5.33783e-06 -1.35525e-20 -1.86766e-05 0 0)
(2.22503e-05 -7.81693e-06 -2.71051e-20 -6.2634e-06 -2.11758e-22 0)
(5.58015e-05 -4.02514e-07 -1.35525e-20 -3.03332e-05 0 0)
(1.87654e-05 -5.81336e-06 2.71051e-20 -5.41898e-06 2.11758e-22 0)
(4.63456e-05 -5.24123e-06 1.35525e-20 -1.98597e-05 -3.38813e-21 0)
(3.21518e-05 -3.83541e-06 -5.42101e-20 -9.99989e-06 2.5411e-21 0)
(4.18301e-05 -9.72424e-07 8.47033e-22 -1.61683e-05 0 0)
(3.47202e-05 -2.80827e-07 2.71051e-20 -1.48048e-05 0 0)
(6.04536e-05 8.74069e-06 -6.77626e-21 -2.34654e-05 1.35525e-20 0)
(5.97515e-05 4.40559e-06 -2.03288e-20 -2.97967e-05 -1.35525e-20 0)
(4.27084e-05 -1.17082e-05 -4.06576e-20 -2.16317e-05 -6.77626e-21 0)
(4.78434e-05 8.97702e-06 0 -2.04675e-05 -1.35525e-20 0)
(2.11793e-05 -1.61095e-05 -5.42101e-20 -1.31781e-05 8.47033e-22 0)
(4.02197e-05 2.96949e-06 2.5411e-21 -1.58843e-05 -2.71051e-20 0)
(3.07532e-05 -2.05516e-08 -2.71051e-20 -5.95003e-06 0 0)
(3.5023e-05 -1.26406e-07 -5.42101e-20 -1.49843e-05 -3.38813e-21 0)
(5.77882e-05 -2.00477e-06 1.35525e-20 -3.10026e-05 -1.01644e-20 0)
(2.76754e-05 -7.09759e-06 5.42101e-20 -8.47024e-06 -8.47033e-22 0)
(5.62768e-05 7.95887e-07 -4.06576e-20 -2.88612e-05 1.35525e-20 0)
(1.26059e-05 -1.93343e-06 0 -3.41626e-05 8.47033e-22 0)
(3.03715e-05 -1.10388e-06 -2.71051e-20 -5.82672e-06 -4.23516e-22 0)
(1.01847e-05 -2.29158e-06 0 -6.74854e-06 -2.11758e-22 0)
(1.93221e-05 -1.49893e-05 -2.71051e-20 -1.62988e-05 -1.69407e-21 0)
(3.28896e-05 -5.88198e-06 1.0842e-19 -1.05741e-05 -1.69407e-21 0)
(1.89e-05 -1.31651e-05 -1.35525e-20 -1.29172e-05 -8.47033e-22 0)
(3.09403e-05 -1.43674e-05 0 -2.10674e-05 0 0)
(4.17626e-05 -5.96888e-06 2.71051e-20 -1.68989e-05 0 0)
(2.1884e-05 6.55162e-06 -2.71051e-20 -5.37383e-05 1.69407e-21 0)
(4.07381e-05 6.24497e-06 -3.38813e-21 -1.56231e-05 1.35525e-20 0)
(3.5278e-05 -7.86469e-07 0 -1.46988e-05 -3.38813e-21 0)
(2.97002e-05 -3.86491e-06 8.13152e-20 -8.27542e-06 0 0)
(1.82741e-05 -1.5188e-05 0 -1.29187e-05 8.47033e-22 0)
(7.93519e-06 -9.10759e-06 2.71051e-20 -9.38957e-06 -6.35275e-22 0)
(5.33368e-05 1.09507e-05 -5.0822e-21 -1.98601e-05 2.71051e-20 0)
(4.75691e-05 4.05039e-06 1.69407e-21 -1.89966e-05 4.06576e-20 0)
(2.65909e-05 -1.79929e-05 0 -2.11678e-05 0 0)
(5.86215e-05 2.73932e-06 6.77626e-21 -3.13184e-05 0 0)
(4.67378e-05 -6.81335e-06 -2.71051e-20 -1.94899e-05 1.01644e-20 0)
(6.35159e-06 2.64162e-06 -2.71051e-20 -2.20982e-05 1.27055e-21 0)
(1.38773e-05 -1.35684e-05 1.35525e-20 -1.05019e-05 -4.23516e-22 0)
(1.84636e-05 -1.13996e-05 -1.35525e-20 -9.85786e-06 -8.47033e-22 0)
(4.29947e-05 -7.33922e-06 5.42101e-20 -1.88408e-05 -6.77626e-21 0)
)
;

boundaryField
{
    back
    {
        type            empty;
    }
    front
    {
        type            empty;
    }
    down
    {
        type            symmetry;
    }
    right
    {
        type            calculated;
        value           nonuniform List<symmTensor> 10((3.0202e-05 -5.41349e-07 2.71051e-20 -4.57381e-06 2.11758e-22 0) (3.32287e-05 -1.26349e-06 0 -1.10128e-05 0 0) (3.39453e-05 -1.05126e-06 8.13152e-20 -1.27854e-05 -3.38813e-21 0) (3.22193e-05 -1.23173e-06 8.13152e-20 -9.09214e-06 -1.69407e-21 0) (3.46435e-05 -7.59605e-07 2.71051e-20 -1.42238e-05 -5.0822e-21 0) (3.12452e-05 -1.1e-06 2.71051e-20 -7.18541e-06 0 0) (3.49696e-05 -3.99895e-07 2.71051e-20 -1.50335e-05 0 0) (3.00533e-05 -3.0563e-08 0 -3.91701e-06 1.05879e-22 0) (3.50165e-05 5.80792e-08 -2.71051e-20 -1.51644e-05 3.38813e-21 0) (3.06754e-05 -7.69816e-07 5.42101e-20 -5.63729e-06 -4.23516e-22 0));
    }
    up
    {
        type            calculated;
        value           nonuniform List<symmTensor> 
20
(
(6.21413e-05 -1.48655e-07 0 -2.70014e-05 6.77626e-21 0)
(6.18248e-05 1.13424e-06 0 -2.70718e-05 6.77626e-21 0)
(4.68176e-05 4.88905e-06 -3.38813e-21 -2.05681e-05 0 0)
(5.92142e-05 2.59181e-06 0 -2.60527e-05 -6.77626e-21 0)
(5.48922e-05 -1.94432e-06 1.35525e-20 -2.34441e-05 -6.77626e-21 0)
(6.06904e-05 -1.0643e-06 -2.71051e-20 -2.61723e-05 3.38813e-21 0)
(5.415e-05 3.90267e-06 0 -2.38425e-05 6.77626e-21 0)
(5.81068e-05 -1.63449e-06 -1.35525e-20 -2.49165e-05 1.35525e-20 0)
(3.944e-05 4.89272e-06 -3.38813e-21 -1.65647e-05 -2.71051e-20 0)