/*--------------------------------*- C++ -*----------------------------------*\
| =========                 |                                                 |
| \\      /  F ield         | OpenFOAM: The Open Source CFD Toolbox           |
|  \\    /   O peration     | Version:  v2012                                 |
|   \\  /    A nd           | Website:  www.openfoam.com                      |
|    \\/     M anipulation  |                                                 |
\*---------------------------------------------------------------------------*/
FoamFile
{
    version     2.0;
    format      ascii;
    class       volScalarField;
    location    "0.2";
    object      epsilonEq;
}
// * * * * * * * * * * * * * * * * * * * * * * * * * * * * * * * * * * * * * //

dimensions      [0 0 0 0 0 0 0];


internalField   nonuniform List<scalar> 
444
(
3.74074e-05
5.8284e-05
3.70536e-05
2.30806e-05
4.83811e-05
1.53489e-05
1.66751e-05
2.33015e-05
5.03061e-05
2.33539e-05
3.01051e-05
4.4253e-05
1.05912e-05
1.65407e-05
3.91061e-05
3.00462e-05
3.39257e-05
5.01336e-05
2.8356e-05
3.88162e-05
5.76252e-05
2.40554e-05
5.30599e-05
2.05221e-05
4.73522e-05
2.77583e-05
3.01669e-05
2.42621e-05
2.63403e-05
2.29534e-05
2.91288e-05
2.55773e-05
1.89756e-05
4.82719e-05
5.72328e-05
6.7418e-05
7.22969e-05
3.0306e-05
4.02442e-05
1.70218e-05
3.86237e-05
3.10605e-05
2.33116e-05
3.07741e-05
3.06986e-05
4.8747e-05
2.13212e-05
6.23486e-05
1.49481e-05
1.62608e-05
2.22898e-05
3.68552e-05
3.45908e-05
2.9412e-05
4.37069e-05
1.82054e-05
1.63683e-05
4.05e-05
4.58203e-05
2.24684e-05
1.59336e-05
2.96026e-05
2.67333e-05
3.88595e-05
5.1588e-05
3.80158e-05
2.70354e-05
2.41129e-05
4.80816e-05
5.40944e-05
4.01033e-05
4.19159e-05
2.24525e-05
2.43569e-05
5.86278e-05
4.22357e-05
4.61244e-05
4.49353e-05
4.88905e-05
4.81838e-05
3.19203e-05
4.7415e-05
5.99863e-05
5.27829e-05
4.96267e-05
3.11864e-05
5.26319e-05
2.18286e-05
5.14727e-05
4.90781e-05
3.28807e-05
4.75317e-05
2.72972e-05
4.89592e-05
5.17211e-05
5.75488e-05
5.06951e-05
4.28195e-05
4.2394e-05
4.47375e-05
4.65913e-05
3.69491e-05
4.70879e-05
4.02746e-05
4.88042e-05
4.16414e-05
5.05433e-05
4.64806e-05
5.14678e-05
4.63678e-05
4.92299e-05
4.83365e-05
3.51114e-05
3.41617e-05
4.88427e-05
4.50014e-05
3.25202e-05
4.45979e-05
4.38422e-05
3.36982e-05
1.45126e-05
4.73741e-05
1.12308e-05
4.29878e-05
2.67229e-05
2.74521e-05
1.14753e-05
1.29813e-05
3.13064e-05
2.03439e-05
2.24334e-05
9.96282e-06
3.34378e-05
2.88863e-05
2.24635e-05
2.21176e-05
2.94294e-05
2.852e-05
1.32469e-05
1.86681e-05
1.96689e-05
2.15012e-05
2.87482e-05
2.78212e-05
2.79112e-05
3.57067e-05
2.14758e-05
2.84228e-05
2.71289e-05
2.66346e-05
2.96264e-05
2.61658e-05
2.81234e-05
2.28322e-05
2.79131e-05
2.51064e-05
2.48219e-05
2.30908e-05
2.29078e-05
2.90363e-05
2.24702e-05
2.02312e-05
2.29657e-05
4.36165e-05
1.51977e-05
3.14382e-05
3.33002e-05
3.53038e-05
2.3627e-05
3.24952e-05
3.40247e-05
3.44056e-05
2.96184e-05
2.10179e-05
3.67741e-05
2.1472e-05
2.57682e-05
2.52995e-05
3.48219e-05
2.50421e-05
2.85246e-05
3.20958e-05
2.46548e-05
2.84678e-05
3.08538e-05
2.56635e-05
2.55559e-05
2.96096e-05
2.68437e-05
2.66707e-05
2.7966e-05
3.14195e-05
2.72795e-05
2.65257e-05
3.26993e-05
3.34502e-05
3.21802e-05
3.07283e-05
2.52386e-05
3.04914e-05
2.98243e-05
2.93114e-05
2.44395e-05
2.80631e-05
2.18554e-05
2.97462e-05
3.16647e-05
2.76785e-05
3.06233e-05
3.01904e-05
2.50947e-05
2.79216e-05
3.09292e-05
2.99363e-05
3.2706e-05
2.59139e-05
2.50155e-05
2.83911e-05
3.32003e-05
4.63962e-05
3.23367e-05
3.18591e-05
2.66757e-05
2.76594e-05
2.59349e-05
3.59194e-05
4.11858e-05
3.91153e-05
2.64357e-05
3.71325e-05
2.41366e-05
4.42297e-05
3.37153e-05
2.68359e-05
3.5969e-05
3.05502e-05
4.50099e-05
3.69025e-05
3.51431e-05
3.10547e-05
3.28516e-05
3.49411e-05
3.01213e-05
4.78479e-05
2.18814e-05
4.94274e-05
3.3579e-05
3.43218e-05
3.15812e-05
5.15301e-05
2.69186e-05
2.72837e-05
4.39404e-05
3.79738e-05
2.6608e-05
2.65431e-05
2.34537e-05
2.69625e-05
2.51119e-05
2.23479e-05
4.02681e-05
3.46809e-05
4.64754e-05
7.19347e-05
4.46571e-05
4.41677e-05
3.64775e-05
2.30325e-05
4.04705e-05
4.72792e-05
3.85809e-05
4.14297e-05
4.45051e-05
5.22254e-05
4.0814e-05
2.26923e-05
4.3059e-05
5.0139e-05
4.77975e-05
2.13194e-05
4.05242e-05
3.47445e-05
4.98576e-05
5.14872e-05
9.51413e-05
4.65638e-05
4.12801e-05
3.6158e-05
3.76789e-05
4.9505e-05
5.45787e-05
3.83312e-05
2.38207e-05
4.86749e-05
5.34496e-05
3.14031e-05
5.62979e-05
2.11173e-05
3.75956e-05
2.68188e-05
3.78622e-05
2.93811e-05
2.96279e-05
2.38826e-05
3.41021e-05
4.87077e-05
2.31823e-05
3.99656e-05
1.75052e-05
4.60274e-05
2.98632e-05
1.87731e-05
5.48403e-05
5.06336e-05
3.91914e-05
2.44389e-05
2.09737e-05
2.39506e-05
2.11375e-05
4.80418e-05
4.32353e-05
2.33876e-05
3.22821e-05
2.78496e-05
2.39228e-05
4.26699e-05
3.26433e-05
2.893e-05
8.0801e-05
0.000113182
3.60603e-05
2.61983e-05
2.72907e-05
3.06632e-05
3.7607e-05
5.56927e-05
3.64019e-05
2.30078e-05
4.18413e-05
4.55208e-05
2.50218e-05
3.04874e-05
3.08856e-05
4.62167e-05
1.75037e-05
4.57768e-05
2.48197e-05
4.19531e-05
2.36937e-05
3.26549e-05
2.14607e-05
2.24955e-05
2.93733e-05
2.97181e-05
2.28278e-05
9.21538e-06
2.6761e-05
2.78653e-05
5.00526e-05
3.40098e-05
3.04313e-05
4.12937e-05
1.94507e-05
2.51889e-05
2.43522e-05
2.14549e-05
3.58369e-05
3.27754e-05
2.0384e-05
2.46099e-05
3.21865e-05
7.91832e-05
2.25828e-05
1.60544e-05
4.68445e-05
5.7939e-05
1.76371e-05
1.718e-05
2.33126e-05
4.31777e-05
4.82358e-05
3.13507e-05
1.30933e-05
2.26005e-05
1.48154e-05
2.37035e-05
2.3753e-05
3.78901e-05
4.84434e-05
2.69352e-05
5.29776e-05
1.72015e-05
3.7553e-05
5.07883e-05
5.37712e-05
2.3954e-05
1.78894e-05
3.02205e-05
2.09382e-05
3.57351e-05
4.03205e-05
6.91142e-05
3.86732e-05
1.95162e-05
5.04514e-05
1.61187e-05
3.96941e-05
2.58145e-05
3.45789e-05
2.93555e-05
5.10034e-05
5.29012e-05
4.01499e-05
4.17873e-05
2.73242e-05
3.35675e-05
2.27464e-05
2.96347e-05
5.20866e-05
2.33163e-05
5.00051e-05
2.80306e-05
2.24796e-05
1.01927e-05
2.68986e-05
2.704e-05
2.39273e-05
3.44625e-05
3.55422e-05
4.55655e-05
3.43649e-05
2.96722e-05
2.34869e-05
2.52009e-05
1.45218e-05
4.5501e-05
3.98695e-05
3.4572e-05
5.28131e-05
4.00803e-05
1.75115e-05
2.10915e-05
2.11864e-05
3.75657e-05
)
;

boundaryField
{
    back
    {
        type            empty;
    }
    front
    {
        type            empty;
    }
    down
    {
        type            symmetry;
    }
    right
    {
        type            calculated;
        value           nonuniform List<scalar> 10(2.18286e-05 2.66346e-05 2.79131e-05 2.51064e-05 2.90363e-05 2.3627e-05 2.96279e-05 2.14607e-05 2.97181e-05 2.25828e-05);
    }
    up
    {
        type            calculated;
        value           nonuniform List<scalar> 
20
(
5.27829e-05
5.26319e-05
4.02746e-05
5.05433e-05
4.64806e-05
5.14678e-05
4.63678e-05
4.92299e-05
3.36982e-05
2.67229e-05
2.96264e-05
4.36165e-05
3.14382e-05
3.33002e-05
3.53038e-05
4.05242e-05
2.36937e-05
2.93733e-05
3.78901e-05
3.02205e-05
)
;
    }
    left
    {
        type            symmetry;
    }
    hole
    {
        type            calculated;
        value           nonuniform List<scalar> 8(2.51119e-05 7.19347e-05 4.41677e-05 2.26923e-05 3.47445e-05 9.51413e-05 0.000113182 4.55655e-05);
    }
}


// ************************************************************************* //
