/*--------------------------------*- C++ -*----------------------------------*\
| =========                 |                                                 |
| \\      /  F ield         | OpenFOAM: The Open Source CFD Toolbox           |
|  \\    /   O peration     | Version:  v2012                                 |
|   \\  /    A nd           | Website:  www.openfoam.com                      |
|    \\/     M anipulation  |                                                 |
\*---------------------------------------------------------------------------*/
FoamFile
{
    version     2.0;
    format      ascii;
    class       pointScalarField;
    location    "0.2";
    object      pEpsilonEq;
}
// * * * * * * * * * * * * * * * * * * * * * * * * * * * * * * * * * * * * * //

dimensions      [0 0 0 0 0 0 0];


internalField   nonuniform List<scalar> 
504
(
3.86605e-05
2.19011e-05
2.95413e-05
2.68504e-05
0.000102959
3.86605e-05
2.19011e-05
2.95413e-05
2.68504e-05
0.000102959
2.00211e-05
1.152e-05
8.92294e-06
1.02598e-05
1.21378e-05
1.40804e-05
1.60274e-05
1.78305e-05
1.94386e-05
2.08488e-05
2.19746e-05
2.27231e-05
2.2955e-05
2.26829e-05
2.21062e-05
2.28475e-05
2.35813e-05
2.46237e-05
2.59756e-05
2.715e-05
2.82508e-05
2.90765e-05
2.94646e-05
2.95737e-05
3.01991e-05
3.09363e-05
3.24555e-05
3.4228e-05
3.64284e-05
3.85992e-05
4.13671e-05
4.40368e-05
4.66042e-05
4.88706e-05
5.05306e-05
5.11254e-05
5.03216e-05
4.78278e-05
4.35806e-05
3.86894e-05
3.28622e-05
2.79172e-05
3.48383e-05
4.18951e-05
5.16926e-05
6.9373e-05
9.95035e-05
7.73479e-05
5.51431e-05
3.18128e-05
1.99827e-05
2.27708e-05
3.40233e-05
2.00211e-05
1.152e-05
8.92294e-06
1.02598e-05
1.21378e-05
1.40804e-05
1.60274e-05
1.78305e-05
1.94386e-05
2.08488e-05
2.19746e-05
2.27231e-05
2.2955e-05
2.26829e-05
2.21062e-05
2.28475e-05
2.35813e-05
2.46237e-05
2.59756e-05
2.715e-05
2.82508e-05
2.90765e-05
2.94646e-05
2.95737e-05
3.01991e-05
3.09363e-05
3.24555e-05
3.4228e-05
3.64284e-05
3.85992e-05
4.13671e-05
4.40368e-05
4.66042e-05
4.88706e-05
5.05306e-05
5.11254e-05
5.03216e-05
4.78278e-05
4.35806e-05
3.86894e-05
3.28622e-05
2.79172e-05
3.48383e-05
4.18951e-05
5.16926e-05
6.9373e-05
9.95035e-05
7.73479e-05
5.51431e-05
3.18128e-05
1.99827e-05
2.27708e-05
3.40233e-05
1.60807e-05
3.48954e-05
4.78374e-05
1.2675e-05
4.14325e-05
2.06318e-05
2.67203e-05
3.34176e-05
4.91535e-05
5.92245e-05
2.44115e-05
2.26482e-05
3.1528e-05
4.36465e-05
4.55421e-05
2.87835e-05
2.27496e-05
2.29327e-05
3.49787e-05
2.98485e-05
4.58459e-05
4.76793e-05
4.14704e-05
4.75111e-05
4.23606e-05
4.56247e-05
4.067e-05
4.31673e-05
3.85555e-05
5.11754e-05
4.07511e-05
3.67983e-05
3.3728e-05
3.27256e-05
3.563e-05
3.2105e-05
3.47557e-05
3.17193e-05
3.40454e-05
3.14162e-05
2.89067e-05
2.90424e-05
3.11301e-05
2.91065e-05
3.07936e-05
2.90072e-05
2.73643e-05
2.89225e-05
3.79367e-05
2.65421e-05
2.74754e-05
2.86963e-05
3.62709e-05
4.68417e-05
2.5972e-05
2.59272e-05
3.27825e-05
2.37566e-05
3.21293e-05
2.62357e-05
2.4996e-05
2.41255e-05
2.93409e-05
2.3985e-05
2.45407e-05
2.25733e-05
2.06778e-05
2.47637e-05
1.88916e-05
2.3871e-05
2.52896e-05
2.43175e-05
2.62623e-05
6.93604e-05
5.76205e-05
5.60195e-05
5.45868e-05
5.26862e-05
3.41111e-05
3.49913e-05
3.62287e-05
5.04836e-05
5.2501e-05
2.69582e-05
2.82655e-05
2.01972e-05
3.70815e-05
3.33332e-05
3.15607e-05
2.60287e-05
4.71886e-05
1.88714e-05
2.44809e-05
4.71312e-05
5.00248e-05
4.90982e-05
5.02758e-05
4.83927e-05
4.7926e-05
4.61384e-05
4.64143e-05
4.37426e-05
4.02847e-05
4.58688e-05
4.44842e-05
4.25236e-05
4.11776e-05
4.37039e-05
4.07192e-05
4.91775e-05
5.87229e-05
3.57807e-05
1.35113e-05
1.45925e-05
1.93e-05
2.13389e-05
2.23105e-05
1.77608e-05
2.17925e-05
2.29709e-05
2.78292e-05
2.86549e-05
2.94595e-05
2.96983e-05
2.87185e-05
3.04064e-05
2.76519e-05
2.75138e-05
2.31056e-05
2.56127e-05
3.30741e-05
2.87908e-05
3.33918e-05
3.03605e-05
2.70564e-05
2.54519e-05
3.67949e-05
2.87345e-05
3.88647e-05
2.11857e-05
2.52445e-05
4.96933e-05
3.50653e-05
3.87887e-05
2.3578e-05
4.95065e-05
5.44911e-05
2.26867e-05
2.97931e-05
3.80956e-05
2.9393e-05
3.09267e-05
2.34729e-05
3.95785e-05
4.85672e-05
4.39181e-05
5.23646e-05
2.99856e-05
3.58199e-05
2.347e-05
1.85715e-05
1.69236e-05
1.90857e-05
2.35002e-05
5.63077e-05
1.42133e-05
3.69455e-05
2.66811e-05
3.8178e-05
5.20952e-05
3.05496e-05
3.21836e-05
8.22236e-05
4.95918e-05
2.38859e-05
1.75136e-05
2.53012e-05
4.99617e-05
4.16629e-05
4.60032e-05
3.15631e-05
2.23249e-05
2.95587e-05
2.2639e-05
2.73045e-05
1.27434e-05
1.83558e-05
5.24972e-05
2.37431e-05
3.51261e-05
3.1805e-05
3.91967e-05
4.26389e-05
2.81689e-05
1.60807e-05
3.48954e-05
4.78374e-05
1.2675e-05
4.14325e-05
2.06318e-05
2.67203e-05
3.34176e-05
4.91535e-05
5.92245e-05
2.44115e-05
2.26482e-05
3.1528e-05
4.36465e-05
4.55421e-05
2.87835e-05
2.27496e-05
2.29327e-05
3.49787e-05
2.98485e-05
4.58459e-05
4.76793e-05
4.14704e-05
4.75111e-05
4.23606e-05
4.56247e-05
4.067e-05
4.31673e-05
3.85555e-05
5.11754e-05
4.07511e-05
3.67983e-05
3.3728e-05
3.27256e-05
3.563e-05
3.2105e-05
3.47557e-05
3.17193e-05
3.40454e-05
3.14162e-05
2.89067e-05
2.90424e-05
3.11301e-05
2.91065e-05
3.07936e-05
2.90072e-05
2.73643e-05
2.89225e-05
3.79367e-05
2.65421e-05
2.74754e-05
2.86963e-05
3.62709e-05
4.68417e-05
2.5972e-05
2.59272e-05
3.27825e-05
2.37566e-05
3.21293e-05
2.62357e-05
2.4996e-05
2.41255e-05
2.93409e-05
2.3985e-05
2.45407e-05
2.25733e-05
2.06778e-05
2.47637e-05
1.88916e-05
2.3871e-05
2.52896e-05
2.43175e-05
2.62623e-05
6.93604e-05
5.76205e-05
5.60195e-05
5.45868e-05
5.26862e-05
3.41111e-05
3.49913e-05
3.62287e-05
5.04836e-05
5.2501e-05
2.69582e-05
2.82655e-05
2.01972e-05
3.70815e-05
3.33332e-05
3.15607e-05
2.60287e-05
4.71886e-05
1.88714e-05
2.44809e-05
4.71312e-05
5.00248e-05
4.90982e-05
5.02758e-05
4.83927e-05
4.7926e-05
4.61384e-05
4.64143e-05
4.37426e-05
4.02847e-05
4.58688e-05
4.44842e-05
4.25236e-05
4.11776e-05
4.37039e-05
4.07192e-05
4.91775e-05
5.87229e-05
3.57807e-05
1.35113e-05
1.45925e-05
1.93e-05
2.13389e-05
2.23105e-05
1.77608e-05
2.17925e-05
2.29709e-05
2.78292e-05
2.86549e-05
2.94595e-05
2.96983e-05
2.87185e-05
3.04064e-05
2.76519e-05
2.75138e-05
2.31056e-05
2.56127e-05
3.30741e-05
2.87908e-05
3.33918e-05
3.03605e-05
2.70564e-05
2.54519e-05
3.67949e-05
2.87345e-05
3.88647e-05
2.11857e-05
2.52445e-05
4.96933e-05
3.50653e-05
3.87887e-05
2.3578e-05
4.95065e-05
5.44911e-05
2.26867e-05
2.97931e-05
3.80956e-05
2.9393e-05
3.09267e-05
2.34729e-05
3.95785e-05
4.85672e-05
4.39181e-05
5.23646e-05
2.99856e-05
3.58199e-05
2.347e-05
1.85715e-05
1.69236e-05
1.90857e-05
2.35002e-05
5.63077e-05
1.42133e-05
3.69455e-05
2.66811e-05
3.8178e-05
5.20952e-05
3.05496e-05
3.21836e-05
8.22236e-05
4.95918e-05
2.38859e-05
1.75136e-05
2.53012e-05
4.99617e-05
4.16629e-05
4.60032e-05
3.15631e-05
2.23249e-05
2.95587e-05
2.2639e-05
2.73045e-05
1.27434e-05
1.83558e-05
5.24972e-05
2.37431e-05
3.51261e-05
3.1805e-05
3.91967e-05
4.26389e-05
2.81689e-05
)
;

boundaryField
{
    back
    {
        type            empty;
    }
    front
    {
        type            empty;
    }
    down
    {
        type            symmetry;
    }
    right
    {
        type            calculated;
    }
    up
    {
        type            calculated;
    }
    left
    {
        type            symmetry;
    }
    hole
    {
        type            calculated;
    }
}


// ************************************************************************* //
