/*--------------------------------*- C++ -*----------------------------------*\
| =========                 |                                                 |
| \\      /  F ield         | OpenFOAM: The Open Source CFD Toolbox           |
|  \\    /   O peration     | Version:  v2012                                 |
|   \\  /    A nd           | Website:  www.openfoam.com                      |
|    \\/     M anipulation  |                                                 |
\*---------------------------------------------------------------------------*/
FoamFile
{
    version     2.0;
    format      ascii;
    class       pointSymmTensorField;
    location    "0.2";
    object      pEpsilon;
}
// * * * * * * * * * * * * * * * * * * * * * * * * * * * * * * * * * * * * * //

dimensions      [0 0 0 0 0 0 0];


internalField   nonuniform List<symmTensor> 
504
(
(1.47777e-05 0 0 -4.91721e-05 0 0)
(3.04766e-05 0 0 -4.32222e-06 0 0)
(3.48033e-05 -3.21587e-08 0 -1.50805e-05 0 0)
(3.06583e-05 0 0 -1.49557e-05 0 0)
(0.000130876 0 0 -3.94655e-05 0 0)
(1.47777e-05 0 0 -4.91721e-05 0 0)
(3.04766e-05 0 0 -4.32222e-06 0 0)
(3.48033e-05 -3.21587e-08 0 -1.50805e-05 0 0)
(3.06583e-05 0 0 -1.49557e-05 0 0)
(0.000130876 0 0 -3.94655e-05 0 0)
(9.48692e-06 0 0 -2.41426e-05 0 0)
(7.4793e-06 0 0 -1.22804e-05 0 0)
(8.82889e-06 0 0 -6.57103e-06 0 0)
(1.22927e-05 0 0 -4.96715e-06 0 0)
(1.5521e-05 0 0 -4.51996e-06 0 0)
(1.8352e-05 0 0 -4.73369e-06 0 0)
(2.09988e-05 0 0 -5.22527e-06 0 0)
(2.33817e-05 0 0 -5.78203e-06 0 0)
(2.54126e-05 0 0 -6.42037e-06 0 0)
(2.71883e-05 0 0 -6.98769e-06 0 0)
(2.86603e-05 0 0 -7.35916e-06 0 0)
(2.97699e-05 0 0 -7.41041e-06 0 0)
(3.04175e-05 0 0 -6.96524e-06 0 0)
(3.0616e-05 0 0 -6.01447e-06 0 0)
(3.06859e-05 -2.85677e-07 0 -4.48325e-06 0 0)
(3.1212e-05 -5.31545e-07 0 -5.44227e-06 0 0)
(3.15721e-05 -7.17055e-07 0 -6.62009e-06 0 0)
(3.20874e-05 -9.41027e-07 0 -8.23345e-06 0 0)
(3.28406e-05 -1.07333e-06 0 -1.01469e-05 0 0)
(3.3427e-05 -9.65632e-07 0 -1.18821e-05 0 0)
(3.40104e-05 -7.60055e-07 0 -1.3433e-05 0 0)
(3.44707e-05 -4.9248e-07 0 -1.45506e-05 0 0)
(3.47054e-05 -1.82391e-07 0 -1.50498e-05 0 0)
(3.49193e-05 -5.67579e-08 0 -1.49954e-05 0 0)
(3.55657e-05 -3.69576e-07 0 -1.54267e-05 0 0)
(3.65162e-05 -6.58138e-07 0 -1.56831e-05 0 0)
(3.83131e-05 -9.41948e-07 0 -1.64309e-05 0 0)
(4.0469e-05 -1.13863e-06 0 -1.72329e-05 0 0)
(4.31202e-05 -1.28249e-06 0 -1.82691e-05 0 0)
(4.5894e-05 -1.58507e-06 0 -1.90653e-05 0 0)
(4.92279e-05 -1.57231e-06 0 -2.03898e-05 0 0)
(5.25381e-05 -1.63816e-06 0 -2.15331e-05 0 0)
(5.57049e-05 -1.45225e-06 0 -2.26775e-05 0 0)
(5.8496e-05 -1.08104e-06 0 -2.37041e-05 0 0)
(6.04957e-05 -4.59385e-07 0 -2.45207e-05 0 0)
(6.11403e-05 4.51014e-07 0 -2.48993e-05 0 0)
(5.9937e-05 1.5836e-06 0 -2.47647e-05 0 0)
(5.65358e-05 2.70388e-06 0 -2.39596e-05 0 0)
(5.09155e-05 3.56337e-06 0 -2.24063e-05 0 0)
(4.43505e-05 4.08319e-06 0 -2.07516e-05 0 0)
(3.71393e-05 2.97886e-06 0 -1.84265e-05 0 0)
(3.14014e-05 1.68579e-06 0 -1.60092e-05 0 0)
(4.22552e-05 0 0 -1.61781e-05 0 0)
(5.23272e-05 0 0 -1.73748e-05 0 0)
(6.54246e-05 0 0 -2.02215e-05 0 0)
(8.61245e-05 0 0 -2.95002e-05 0 0)
(0.000119566 -2.38811e-05 0 -3.94354e-05 0 0)
(8.85042e-05 -3.12552e-05 0 -2.39801e-05 0 0)
(5.59157e-05 -3.01925e-05 0 -1.40186e-05 0 0)
(2.93772e-05 -1.78997e-05 0 -1.11699e-05 0 0)
(1.46988e-05 -6.40312e-06 0 -1.74176e-05 0 0)
(9.25429e-06 3.87809e-06 0 -2.7889e-05 0 0)
(1.20519e-05 8.00695e-06 0 -4.19668e-05 0 0)
(9.48692e-06 0 0 -2.41426e-05 0 0)
(7.4793e-06 0 0 -1.22804e-05 0 0)
(8.82889e-06 0 0 -6.57103e-06 0 0)
(1.22927e-05 0 0 -4.96715e-06 0 0)
(1.5521e-05 0 0 -4.51996e-06 0 0)
(1.8352e-05 0 0 -4.73369e-06 0 0)
(2.09988e-05 0 0 -5.22527e-06 0 0)
(2.33817e-05 0 0 -5.78203e-06 0 0)
(2.54126e-05 0 0 -6.42037e-06 0 0)
(2.71883e-05 0 0 -6.98769e-06 0 0)
(2.86603e-05 0 0 -7.35916e-06 0 0)
(2.97699e-05 0 0 -7.41041e-06 0 0)
(3.04175e-05 0 0 -6.96524e-06 0 0)
(3.0616e-05 0 0 -6.01447e-06 0 0)
(3.06859e-05 -2.85677e-07 0 -4.48325e-06 0 0)
(3.1212e-05 -5.31545e-07 0 -5.44227e-06 0 0)
(3.15721e-05 -7.17055e-07 0 -6.62009e-06 0 0)
(3.20874e-05 -9.41027e-07 0 -8.23345e-06 0 0)
(3.28406e-05 -1.07333e-06 0 -1.01469e-05 0 0)
(3.3427e-05 -9.65632e-07 0 -1.18821e-05 0 0)
(3.40104e-05 -7.60055e-07 0 -1.3433e-05 0 0)
(3.44707e-05 -4.9248e-07 0 -1.45506e-05 0 0)
(3.47054e-05 -1.82391e-07 0 -1.50498e-05 0 0)
(3.49193e-05 -5.67579e-08 0 -1.49954e-05 0 0)
(3.55657e-05 -3.69576e-07 0 -1.54267e-05 0 0)
(3.65162e-05 -6.58138e-07 0 -1.56831e-05 0 0)
(3.83131e-05 -9.41948e-07 0 -1.64309e-05 0 0)
(4.0469e-05 -1.13863e-06 0 -1.72329e-05 0 0)
(4.31202e-05 -1.28249e-06 0 -1.82691e-05 0 0)
(4.5894e-05 -1.58507e-06 0 -1.90653e-05 0 0)
(4.92279e-05 -1.57231e-06 0 -2.03898e-05 0 0)
(5.25381e-05 -1.63816e-06 0 -2.15331e-05 0 0)
(5.57049e-05 -1.45225e-06 0 -2.26775e-05 0 0)
(5.8496e-05 -1.08104e-06 0 -2.37041e-05 0 0)
(6.04957e-05 -4.59385e-07 0 -2.45207e-05 0 0)
(6.11403e-05 4.51014e-07 0 -2.48993e-05 0 0)
(5.9937e-05 1.5836e-06 0 -2.47647e-05 0 0)
(5.65358e-05 2.70388e-06 0 -2.39596e-05 0 0)
(5.09155e-05 3.56337e-06 0 -2.24063e-05 0 0)
(4.43505e-05 4.08319e-06 0 -2.07516e-05 0 0)
(3.71393e-05 2.97886e-06 0 -1.84265e-05 0 0)
(3.14014e-05 1.68579e-06 0 -1.60092e-05 0 0)
(4.22552e-05 0 0 -1.61781e-05 0 0)
(5.23272e-05 0 0 -1.73748e-05 0 0)
(6.54246e-05 0 0 -2.02215e-05 0 0)
(8.61245e-05 0 0 -2.95002e-05 0 0)
(0.000119566 -2.38811e-05 0 -3.94354e-05 0 0)
(8.85042e-05 -3.12552e-05 0 -2.39801e-05 0 0)
(5.59157e-05 -3.01925e-05 0 -1.40186e-05 0 0)
(2.93772e-05 -1.78997e-05 0 -1.11699e-05 0 0)
(1.46988e-05 -6.40312e-06 0 -1.74176e-05 0 0)
(9.25429e-06 3.87809e-06 0 -2.7889e-05 0 0)
(1.20519e-05 8.00695e-06 0 -4.19668e-05 0 0)
(2.02966e-05 -3.47873e-06 0 -5.23215e-06 0 0)
(4.11337e-05 -2.84408e-06 0 -1.74668e-05 0 0)
(5.61237e-05 -2.14129e-06 0 -2.45953e-05 0 0)
(1.23865e-05 -5.53708e-06 0 -6.23375e-06 0 0)
(4.87082e-05 -3.63319e-06 0 -2.08509e-05 0 0)
(2.66134e-05 -2.32069e-06 0 -6.95164e-06 0 0)
(3.31963e-05 -2.11785e-06 0 -1.10873e-05 0 0)
(3.15368e-05 -1.30947e-05 0 -1.96196e-05 0 0)
(5.72264e-05 3.65898e-06 0 -2.5607e-05 0 0)
(6.82073e-05 -1.69627e-05 0 -2.53908e-05 0 0)
(3.17447e-05 -1.82155e-06 0 -8.10827e-06 0 0)
(2.94248e-05 -1.61182e-06 0 -7.58017e-06 0 0)
(3.7314e-05 -2.12403e-06 0 -1.5676e-05 0 0)
(5.05455e-05 6.78376e-06 0 -2.19724e-05 0 0)
(5.69485e-05 4.13474e-06 0 -1.82489e-05 0 0)
(3.45366e-05 -1.38991e-06 0 -1.37755e-05 0 0)
(1.32293e-05 -2.76903e-06 0 -2.51692e-05 0 0)
(3.05628e-05 -8.37675e-07 0 -6.64166e-06 0 0)
(4.15977e-05 4.73699e-06 0 -1.64543e-05 0 0)
(3.53747e-05 -8.62092e-07 0 -1.49291e-05 0 0)
(4.96481e-05 -1.50728e-05 0 -2.20681e-05 0 0)
(4.99585e-05 -1.08882e-05 0 -2.87554e-05 0 0)
(3.87018e-05 -1.42673e-05 0 -2.68606e-05 0 0)
(4.90208e-05 -1.03372e-05 0 -2.98596e-05 0 0)
(4.03864e-05 -1.45786e-05 0 -2.64603e-05 0 0)
(4.73718e-05 -1.06773e-05 0 -2.78753e-05 0 0)
(3.97679e-05 -1.44424e-05 0 -2.38166e-05 0 0)
(4.52134e-05 -1.14184e-05 0 -2.50205e-05 0 0)
(3.87808e-05 -1.39869e-05 0 -2.09805e-05 0 0)
(5.56209e-05 -4.88571e-06 0 -3.13563e-05 0 0)
(4.3309e-05 -1.16932e-05 0 -2.21578e-05 0 0)
(3.80978e-05 -1.33264e-05 0 -1.87055e-05 0 0)
(3.29622e-05 -1.46493e-05 0 -1.66981e-05 0 0)
(3.33809e-05 -1.36205e-05 0 -1.52063e-05 0 0)
(3.79404e-05 -1.25403e-05 0 -1.71545e-05 0 0)
(3.39296e-05 -1.26462e-05 0 -1.42754e-05 0 0)
(3.7872e-05 -1.1707e-05 0 -1.61501e-05 0 0)
(3.44998e-05 -1.16262e-05 0 -1.38238e-05 0 0)
(3.78387e-05 -1.07057e-05 0 -1.55813e-05 0 0)
(3.50099e-05 -1.05258e-05 0 -1.36247e-05 0 0)
(3.19126e-05 -1.07419e-05 0 -1.17946e-05 0 0)
(3.28421e-05 -9.72961e-06 0 -1.19487e-05 0 0)
(3.53827e-05 -9.37742e-06 0 -1.35767e-05 0 0)
(3.35388e-05 -8.68833e-06 0 -1.21456e-05 0 0)
(3.55743e-05 -8.15801e-06 0 -1.35935e-05 0 0)
(3.3986e-05 -7.52487e-06 0 -1.22821e-05 0 0)
(3.22396e-05 -7.60837e-06 0 -1.09284e-05 0 0)
(2.82117e-05 -1.36997e-05 0 -1.27676e-05 0 0)
(4.1993e-05 -1.0733e-05 0 -1.86271e-05 0 0)
(3.01632e-05 -9.33709e-06 0 -1.024e-05 0 0)
(3.28321e-05 -6.60147e-06 0 -1.11398e-05 0 0)
(3.41671e-05 -6.11006e-06 0 -1.23321e-05 0 0)
(3.26807e-05 -1.58833e-05 0 -2.11054e-05 0 0)
(5.1399e-05 -6.09834e-06 0 -2.76283e-05 0 0)
(3.14696e-05 -6.26239e-06 0 -9.90355e-06 0 0)
(2.87076e-05 -1.01159e-05 0 -9.88266e-06 0 0)
(3.76519e-05 -8.315e-06 0 -1.50471e-05 0 0)
(2.75909e-05 -8.12951e-06 0 -8.57937e-06 0 0)
(3.73623e-05 -6.93772e-06 0 -1.49537e-05 0 0)
(3.21544e-05 -5.41085e-06 0 -1.01038e-05 0 0)
(3.10966e-05 -4.8837e-06 0 -9.1297e-06 0 0)
(2.99065e-05 -5.23152e-06 0 -8.64089e-06 0 0)
(2.67638e-05 -1.47632e-05 0 -1.39297e-05 0 0)
(2.27905e-05 -1.22683e-05 0 -9.89553e-06 0 0)
(2.49635e-05 -1.15358e-05 0 -9.61919e-06 0 0)
(2.56153e-05 -8.57258e-06 0 -8.02309e-06 0 0)
(2.51864e-05 -5.84801e-06 0 -6.99436e-06 0 0)
(2.91872e-05 -7.69714e-06 0 -9.13685e-06 0 0)
(1.98501e-05 -8.70369e-06 0 -6.81478e-06 0 0)
(2.09087e-05 -1.30068e-05 0 -1.06808e-05 0 0)
(3.17551e-05 -4.11443e-06 0 -9.26089e-06 0 0)
(3.10354e-05 -3.57203e-06 0 -8.35366e-06 0 0)
(3.25553e-05 -4.26464e-06 0 -1.0225e-05 0 0)
(8.3998e-05 -1.1111e-05 0 -2.98504e-05 0 0)
(6.95841e-05 8.39532e-07 0 -2.71491e-05 0 0)
(6.47757e-05 -2.50449e-06 0 -3.00235e-05 0 0)
(6.30783e-05 6.66687e-06 0 -2.83514e-05 0 0)
(6.2239e-05 8.28984e-06 0 -2.48644e-05 0 0)
(3.95889e-05 -6.75402e-06 0 -1.63403e-05 0 0)
(4.02575e-05 -7.93426e-06 0 -1.66208e-05 0 0)
(4.22449e-05 -5.78622e-06 0 -1.77909e-05 0 0)
(5.77735e-05 1.02181e-05 0 -2.51297e-05 0 0)
(5.93449e-05 8.06964e-06 0 -2.83368e-05 0 0)
(2.15677e-05 -8.79969e-06 0 -2.16815e-05 0 0)
(2.00645e-05 -1.39205e-05 0 -2.02056e-05 0 0)
(1.20259e-05 -1.03739e-05 0 -1.60441e-05 0 0)
(4.29178e-05 -6.9356e-06 0 -1.814e-05 0 0)
(3.90718e-05 -5.04111e-06 0 -1.62241e-05 0 0)
(3.70619e-05 -5.58511e-06 0 -1.48966e-05 0 0)
(1.91772e-05 -1.44268e-05 0 -1.53942e-05 0 0)
(5.47168e-05 9.99221e-06 0 -2.22928e-05 0 0)
(1.31933e-05 -1.0809e-05 0 -1.12988e-05 0 0)
(3.15883e-05 -2.79239e-06 0 -8.22044e-06 0 0)
(5.4678e-05 5.68456e-06 0 -2.42248e-05 0 0)
(5.70669e-05 6.20693e-06 0 -2.6897e-05 0 0)
(5.65341e-05 2.56345e-06 0 -2.65703e-05 0 0)
(5.67512e-05 2.31848e-06 0 -2.86819e-05 0 0)
(5.47805e-05 -1.05267e-06 0 -2.75203e-05 0 0)
(5.54125e-05 -6.52141e-07 0 -2.58086e-05 0 0)
(5.2241e-05 -4.28116e-06 0 -2.5724e-05 0 0)
(5.37019e-05 -3.2635e-06 0 -2.46493e-05 0 0)
(4.96457e-05 -6.61874e-06 0 -2.33978e-05 0 0)
(4.6774e-05 7.27682e-06 0 -1.96447e-05 0 0)
(5.38422e-05 -3.06648e-06 0 -2.33922e-05 0 0)
(5.15096e-05 -5.0801e-06 0 -2.30822e-05 0 0)
(4.91849e-05 -6.21259e-06 0 -2.16506e-05 0 0)
(4.65528e-05 -8.4684e-06 0 -2.11597e-05 0 0)
(5.13075e-05 -3.54896e-06 0 -2.21524e-05 0 0)
(4.72939e-05 -6.34399e-06 0 -2.03116e-05 0 0)
(5.76303e-05 -6.30297e-07 0 -2.54926e-05 0 0)
(7.39191e-05 1.41179e-06 0 -2.34958e-05 0 0)
(4.0614e-05 -9.13648e-06 0 -1.70163e-05 0 0)
(1.51419e-05 -4.96954e-06 0 -5.26258e-06 0 0)
(1.7607e-05 -4.29381e-06 0 -5.02766e-06 0 0)
(2.48342e-05 -2.72775e-06 0 -6.37717e-06 0 0)
(2.67169e-05 -4.64817e-06 0 -7.24178e-06 0 0)
(2.82008e-05 -4.0308e-06 0 -7.68839e-06 0 0)
(2.27347e-05 -3.12074e-06 0 -5.7467e-06 0 0)
(2.81932e-05 -1.9715e-06 0 -7.36855e-06 0 0)
(2.92609e-05 -3.46299e-06 0 -7.93295e-06 0 0)
(3.38982e-05 -1.84515e-06 0 -1.25553e-05 0 0)
(3.45032e-05 -2.94348e-06 0 -1.32218e-05 0 0)
(3.51505e-05 -2.0523e-06 0 -1.42585e-05 0 0)
(3.54068e-05 -3.62475e-06 0 -1.39955e-05 0 0)
(3.44805e-05 -4.53429e-06 0 -1.27986e-05 0 0)
(3.61008e-05 -2.38202e-06 0 -1.49004e-05 0 0)
(3.3701e-05 -3.45076e-06 0 -1.2009e-05 0 0)
(3.34632e-05 -4.75806e-06 0 -1.14733e-05 0 0)
(3.03124e-05 -1.23365e-06 0 -7.3717e-06 0 0)
(3.24431e-05 -2.38212e-06 0 -9.65479e-06 0 0)
(3.90159e-05 -2.51544e-06 0 -1.65558e-05 0 0)
(3.08137e-05 -1.17218e-05 0 -1.18097e-05 0 0)
(3.77843e-05 -9.54674e-06 0 -1.52343e-05 0 0)
(3.55502e-05 -6.81308e-06 0 -1.36389e-05 0 0)
(3.13516e-05 -8.52289e-06 0 -1.06301e-05 0 0)
(3.04591e-05 -7.02021e-06 0 -9.54704e-06 0 0)
(4.1252e-05 -1.01015e-05 0 -1.76334e-05 0 0)
(2.95556e-05 -1.26761e-05 0 -1.20654e-05 0 0)
(4.22843e-05 -1.12126e-05 0 -1.98506e-05 0 0)
(2.31961e-05 -8.99314e-06 0 -7.47297e-06 0 0)
(2.69698e-05 -1.08276e-05 0 -9.68092e-06 0 0)
(5.80864e-05 1.36239e-06 0 -2.59124e-05 0 0)
(3.26637e-05 -1.56219e-05 0 -1.87997e-05 0 0)
(4.56385e-05 -3.83485e-06 0 -1.93589e-05 0 0)
(3.09117e-05 -2.04902e-06 0 -7.38233e-06 0 0)
(5.36096e-05 -5.46766e-06 0 -3.03734e-05 0 0)
(6.15382e-05 2.22547e-06 0 -3.1084e-05 0 0)
(3.06136e-05 -9.3641e-07 0 -5.96562e-06 0 0)
(2.51268e-05 -1.56371e-05 0 -1.55452e-05 0 0)
(4.65982e-05 3.66486e-06 0 -1.66575e-05 0 0)
(3.49107e-05 -7.82233e-07 0 -1.46066e-05 0 0)
(3.65712e-05 -3.97503e-06 0 -1.4904e-05 0 0)
(3.02815e-05 -2.75603e-06 0 -7.86329e-06 0 0)
(4.50321e-05 -8.64874e-06 0 -1.96646e-05 0 0)
(5.54059e-05 9.04978e-06 0 -2.48249e-05 0 0)
(4.83759e-05 -8.44668e-06 0 -2.45008e-05 0 0)
(5.83869e-05 1.27426e-07 0 -3.09131e-05 0 0)
(3.55237e-05 -5.31989e-06 0 -1.37294e-05 0 0)
(3.04721e-05 -1.59258e-05 0 -2.25738e-05 0 0)
(2.87603e-05 -5.94163e-06 0 -8.27202e-06 0 0)
(1.78289e-05 -9.50364e-06 0 -7.41563e-06 0 0)
(8.0758e-06 -4.39287e-06 0 -1.91485e-05 0 0)
(2.28455e-05 -6.20883e-06 0 -6.25516e-06 0 0)
(3.12072e-05 -1.37431e-06 0 -6.90183e-06 0 0)
(6.91617e-05 4.12781e-06 0 -2.45388e-05 0 0)
(8.66027e-06 -6.58809e-06 0 -1.2043e-05 0 0)
(4.3548e-05 -3.13178e-06 0 -1.84683e-05 0 0)
(3.30045e-05 -3.5739e-06 0 -1.08187e-05 0 0)
(4.37726e-05 -8.0878e-06 0 -1.86875e-05 0 0)
(5.75389e-05 -5.66138e-06 0 -3.062e-05 0 0)
(3.61575e-05 -1.10711e-06 0 -1.5323e-05 0 0)
(3.79311e-05 -4.05289e-06 0 -1.57066e-05 0 0)
(9.98379e-05 -7.87825e-06 0 -3.69701e-05 0 0)
(5.5143e-05 -1.8191e-06 0 -2.93762e-05 0 0)
(3.02009e-05 -4.10224e-06 0 -8.33363e-06 0 0)
(2.0253e-05 -6.56057e-06 0 -5.79129e-06 0 0)
(3.20962e-05 -3.19657e-06 0 -9.192e-06 0 0)
(6.0251e-05 8.1423e-06 0 -2.17864e-05 0 0)
(4.60587e-05 -9.49202e-06 0 -2.21833e-05 0 0)
(5.25101e-05 1.00678e-05 0 -2.26284e-05 0 0)
(3.81161e-05 2.17343e-06 0 -1.46719e-05 0 0)
(3.04312e-05 -4.15939e-07 0 -5.43251e-06 0 0)
(3.49733e-05 -2.0497e-07 0 -1.48923e-05 0 0)
(2.72959e-05 -6.56063e-06 0 -7.92188e-06 0 0)
(3.30382e-05 -5.64333e-06 0 -1.11082e-05 0 0)
(1.01129e-05 -5.82103e-06 0 -8.61941e-06 0 0)
(1.53866e-05 -1.01451e-05 0 -8.79226e-06 0 0)
(5.90018e-05 4.93181e-06 0 -2.98036e-05 0 0)
(1.82622e-05 -1.39141e-05 0 -1.17847e-05 0 0)
(4.10716e-05 -4.99853e-06 0 -1.73593e-05 0 0)
(2.5645e-05 -1.6083e-05 0 -1.89072e-05 0 0)
(4.56874e-05 -5.99577e-06 0 -1.9388e-05 0 0)
(5.06464e-05 7.74892e-06 0 -1.92496e-05 0 0)
(1.24523e-05 2.84784e-07 0 -3.46248e-05 0 0)
(2.02966e-05 -3.47873e-06 0 -5.23215e-06 0 0)
(4.11337e-05 -2.84408e-06 0 -1.74668e-05 0 0)
(5.61237e-05 -2.14129e-06 0 -2.45953e-05 0 0)
(1.23865e-05 -5.53708e-06 0 -6.23375e-06 0 0)
(4.87082e-05 -3.63319e-06 0 -2.08509e-05 0 0)
(2.66134e-05 -2.32069e-06 0 -6.95164e-06 0 0)
(3.31963e-05 -2.11785e-06 0 -1.10873e-05 0 0)
(3.15368e-05 -1.30947e-05 0 -1.96196e-05 0 0)
(5.72264e-05 3.65898e-06 0 -2.5607e-05 0 0)
(6.82073e-05 -1.69627e-05 0 -2.53908e-05 0 0)
(3.17447e-05 -1.82155e-06 0 -8.10827e-06 0 0)
(2.94248e-05 -1.61182e-06 0 -7.58017e-06 0 0)
(3.7314e-05 -2.12403e-06 0 -1.5676e-05 0 0)
(5.05455e-05 6.78376e-06 0 -2.19724e-05 0 0)
(5.69485e-05 4.13474e-06 0 -1.82489e-05 0 0)
(3.45366e-05 -1.38991e-06 0 -1.37755e-05 0 0)
(1.32293e-05 -2.76903e-06 0 -2.51692e-05 0 0)
(3.05628e-05 -8.37675e-07 0 -6.64166e-06 0 0)
(4.15977e-05 4.73699e-06 0 -1.64543e-05 0 0)
(3.53747e-05 -8.62092e-07 0 -1.49291e-05 0 0)
(4.96481e-05 -1.50728e-05 0 -2.20681e-05 0 0)
(4.99585e-05 -1.08882e-05 0 -2.87554e-05 0 0)
(3.87018e-05 -1.42673e-05 0 -2.68606e-05 0 0)
(4.90208e-05 -1.03372e-05 0 -2.98596e-05 0 0)
(4.03864e-05 -1.45786e-05 0 -2.64603e-05 0 0)
(4.73718e-05 -1.06773e-05 0 -2.78753e-05 0 0)
(3.97679e-05 -1.44424e-05 0 -2.38166e-05 0 0)
(4.52134e-05 -1.14184e-05 0 -2.50205e-05 0 0)
(3.87808e-05 -1.39869e-05 0 -2.09805e-05 0 0)
(5.56209e-05 -4.88571e-06 0 -3.13563e-05 0 0)
(4.3309e-05 -1.16932e-05 0 -2.21578e-05 0 0)
(3.80978e-05 -1.33264e-05 0 -1.87055e-05 0 0)
(3.29622e-05 -1.46493e-05 0 -1.66981e-05 0 0)
(3.33809e-05 -1.36205e-05 0 -1.52063e-05 0 0)
(3.79404e-05 -1.25403e-05 0 -1.71545e-05 0 0)
(3.39296e-05 -1.26462e-05 0 -1.42754e-05 0 0)
(3.7872e-05 -1.1707e-05 0 -1.61501e-05 0 0)
(3.44998e-05 -1.16262e-05 0 -1.38238e-05 0 0)
(3.78387e-05 -1.07057e-05 0 -1.55813e-05 0 0)
(3.50099e-05 -1.05258e-05 0 -1.36247e-05 0 0)
(3.19126e-05 -1.07419e-05 0 -1.17946e-05 0 0)
(3.28421e-05 -9.72961e-06 0 -1.19487e-05 0 0)
(3.53827e-05 -9.37742e-06 0 -1.35767e-05 0 0)
(3.35388e-05 -8.68833e-06 0 -1.21456e-05 0 0)
(3.55743e-05 -8.15801e-06 0 -1.35935e-05 0 0)
(3.3986e-05 -7.52487e-06 0 -1.22821e-05 0 0)
(3.22396e-05 -7.60837e-06 0 -1.09284e-05 0 0)
(2.82117e-05 -1.36997e-05 0 -1.27676e-05 0 0)
(4.1993e-05 -1.0733e-05 0 -1.86271e-05 0 0)
(3.01632e-05 -9.33709e-06 0 -1.024e-05 0 0)
(3.28321e-05 -6.60147e-06 0 -1.11398e-05 0 0)
(3.41671e-05 -6.11006e-06 0 -1.23321e-05 0 0)
(3.26807e-05 -1.58833e-05 0 -2.11054e-05 0 0)
(5.1399e-05 -6.09834e-06 0 -2.76283e-05 0 0)
(3.14696e-05 -6.26239e-06 0 -9.90355e-06 0 0)
(2.87076e-05 -1.01159e-05 0 -9.88266e-06 0 0)
(3.76519e-05 -8.315e-06 0 -1.50471e-05 0 0)
(2.75909e-05 -8.12951e-06 0 -8.57937e-06 0 0)
(3.73623e-05 -6.93772e-06 0 -1.49537e-05 0 0)
(3.21544e-05 -5.41085e-06 0 -1.01038e-05 0 0)
(3.10966e-05 -4.8837e-06 0 -9.1297e-06 0 0)
(2.99065e-05 -5.23152e-06 0 -8.64089e-06 0 0)
(2.67638e-05 -1.47632e-05 0 -1.39297e-05 0 0)
(2.27905e-05 -1.22683e-05 0 -9.89553e-06 0 0)
(2.49635e-05 -1.15358e-05 0 -9.61919e-06 0 0)
(2.56153e-05 -8.57258e-06 0 -8.02309e-06 0 0)
(2.51864e-05 -5.84801e-06 0 -6.99436e-06 0 0)
(2.91872e-05 -7.69714e-06 0 -9.13685e-06 0 0)
(1.98501e-05 -8.70369e-06 0 -6.81478e-06 0 0)
(2.09087e-05 -1.30068e-05 0 -1.06808e-05 0 0)
(3.17551e-05 -4.11443e-06 0 -9.26089e-06 0 0)
(3.10354e-05 -3.57203e-06 0 -8.35366e-06 0 0)
(3.25553e-05 -4.26464e-06 0 -1.0225e-05 0 0)
(8.3998e-05 -1.1111e-05 0 -2.98504e-05 0 0)
(6.95841e-05 8.39532e-07 0 -2.71491e-05 0 0)
(6.47757e-05 -2.50449e-06 0 -3.00235e-05 0 0)
(6.30783e-05 6.66687e-06 0 -2.83514e-05 0 0)
(6.2239e-05 8.28984e-06 0 -2.48644e-05 0 0)
(3.95889e-05 -6.75402e-06 0 -1.63403e-05 0 0)
(4.02575e-05 -7.93426e-06 0 -1.66208e-05 0 0)
(4.22449e-05 -5.78622e-06 0 -1.77909e-05 0 0)
(5.77735e-05 1.02181e-05 0 -2.51297e-05 0 0)
(5.93449e-05 8.06964e-06 0 -2.83368e-05 0 0)
(2.15677e-05 -8.79969e-06 0 -2.16815e-05 0 0)
(2.00645e-05 -1.39205e-05 0 -2.02056e-05 0 0)
(1.20259e-05 -1.03739e-05 0 -1.60441e-05 0 0)
(4.29178e-05 -6.9356e-06 0 -1.814e-05 0 0)
(3.90718e-05 -5.04111e-06 0 -1.62241e-05 0 0)
(3.70619e-05 -5.58511e-06 0 -1.48966e-05 0 0)
(1.91772e-05 -1.44268e-05 0 -1.53942e-05 0 0)
(5.47168e-05 9.99221e-06 0 -2.22928e-05 0 0)
(1.31933e-05 -1.0809e-05 0 -1.12988e-05 0 0)
(3.15883e-05 -2.79239e-06 0 -8.22044e-06 0 0)
(5.4678e-05 5.68456e-06 0 -2.42248e-05 0 0)
(5.70669e-05 6.20693e-06 0 -2.6897e-05 0 0)
(5.65341e-05 2.56345e-06 0 -2.65703e-05 0 0)
(5.67512e-05 2.31848e-06 0 -2.86819e-05 0 0)
(5.47805e-05 -1.05267e-06 0 -2.75203e-05 0 0)
(5.54125e-05 -6.52141e-07 0 -2.58086e-05 0 0)
(5.2241e-05 -4.28116e-06 0 -2.5724e-05 0 0)
(5.37019e-05 -3.2635e-06 0 -2.46493e-05 0 0)
(4.96457e-05 -6.61874e-06 0 -2.33978e-05 0 0)
(4.6774e-05 7.27682e-06 0 -1.96447e-05 0 0)
(5.38422e-05 -3.06648e-06 0 -2.33922e-05 0 0)
(5.15096e-05 -5.0801e-06 0 -2.30822e-05 0 0)
(4.91849e-05 -6.21259e-06 0 -2.16506e-05 0 0)
(4.65528e-05 -8.4684e-06 0 -2.11597e-05 0 0)
(5.13075e-05 -3.54896e-06 0 -2.21524e-05 0 0)
(4.72939e-05 -6.34399e-06 0 -2.03116e-05 0 0)
(5.76303e-05 -6.30297e-07 0 -2.54926e-05 0 0)
(7.39191e-05 1.41179e-06 0 -2.34958e-05 0 0)
(4.0614e-05 -9.13648e-06 0 -1.70163e-05 0 0)
(1.51419e-05 -4.96954e-06 0 -5.26258e-06 0 0)
(1.7607e-05 -4.29381e-06 0 -5.02766e-06 0 0)
(2.48342e-05 -2.72775e-06 0 -6.37717e-06 0 0)
(2.67169e-05 -4.64817e-06 0 -7.24178e-06 0 0)
(2.82008e-05 -4.0308e-06 0 -7.68839e-06 0 0)
(2.27347e-05 -3.12074e-06 0 -5.7467e-06 0 0)
(2.81932e-05 -1.9715e-06 0 -7.36855e-06 0 0)
(2.92609e-05 -3.46299e-06 0 -7.93295e-06 0 0)
(3.38982e-05 -1.84515e-06 0 -1.25553e-05 0 0)
(3.45032e-05 -2.94348e-06 0 -1.32218e-05 0 0)
(3.51505e-05 -2.0523e-06 0 -1.42585e-05 0 0)
(3.54068e-05 -3.62475e-06 0 -1.39955e-05 0 0)
(3.44805e-05 -4.53429e-06 0 -1.27986e-05 0 0)
(3.61008e-05 -2.38202e-06 0 -1.49004e-05 0 0)
(3.3701e-05 -3.45076e-06 0 -1.2009e-05 0 0)
(3.34632e-05 -4.75806e-06 0 -1.14733e-05 0 0)
(3.03124e-05 -1.23365e-06 0 -7.3717e-06 0 0)
(3.24431e-05 -2.38212e-06 0 -9.65479e-06 0 0)
(3.90159e-05 -2.51544e-06 0 -1.65558e-05 0 0)
(3.08137e-05 -1.17218e-05 0 -1.18097e-05 0 0)
(3.77843e-05 -9.54674e-06 0 -1.52343e-05 0 0)
(3.55502e-05 -6.81308e-06 0 -1.36389e-05 0 0)
(3.13516e-05 -8.52289e-06 0 -1.06301e-05 0 0)
(3.04591e-05 -7.02021e-06 0 -9.54704e-06 0 0)
(4.1252e-05 -1.01015e-05 0 -1.76334e-05 0 0)
(2.95556e-05 -1.26761e-05 0 -1.20654e-05 0 0)
(4.22843e-05 -1.12126e-05 0 -1.98506e-05 0 0)
(2.31961e-05 -8.99314e-06 0 -7.47297e-06 0 0)
(2.69698e-05 -1.08276e-05 0 -9.68092e-06 0 0)
(5.80864e-05 1.36239e-06 0 -2.59124e-05 0 0)
(3.26637e-05 -1.56219e-05 0 -1.87997e-05 0 0)
(4.56385e-05 -3.83485e-06 0 -1.93589e-05 0 0)
(3.09117e-05 -2.04902e-06 0 -7.38233e-06 0 0)
(5.36096e-05 -5.46766e-06 0 -3.03734e-05 0 0)
(6.15382e-05 2.22547e-06 0 -3.1084e-05 0 0)
(3.06136e-05 -9.3641e-07 0 -5.96562e-06 0 0)
(2.51268e-05 -1.56371e-05 0 -1.55452e-05 0 0)
(4.65982e-05 3.66486e-06 0 -1.66575e-05 0 0)
(3.49107e-05 -7.82233e-07 0 -1.46066e-05 0 0)
(3.65712e-05 -3.97503e-06 0 -1.4904e-05 0 0)
(3.02815e-05 -2.75603e-06 0 -7.86329e-06 0 0)
(4.50321e-05 -8.64874e-06 0 -1.96646e-05 0 0)
(5.54059e-05 9.04978e-06 0 -2.48249e-05 0 0)
(4.83759e-05 -8.44668e-06 0 -2.45008e-05 0 0)
(5.83869e-05 1.27426e-07 0 -3.09131e-05 0 0)
(3.55237e-05 -5.31989e-06 0 -1.37294e-05 0 0)
(3.04721e-05 -1.59258e-05 0 -2.25738e-05 0 0)
(2.87603e-05 -5.94163e-06 0 -8.27202e-06 0 0)
(1.78289e-05 -9.50364e-06 0 -7.41563e-06 0 0)
(8.0758e-06 -4.39287e-06 0 -1.91485e-05 0 0)
(2.28455e-05 -6.20883e-06 0 -6.25516e-06 0 0)
(3.12072e-05 -1.37431e-06 0 -6.90183e-06 0 0)
(6.91617e-05 4.12781e-06 0 -2.45388e-05 0 0)
(8.66027e-06 -6.58809e-06 0 -1.2043e-05 0 0)
(4.3548e-05 -3.13178e-06 0 -1.84683e-05 0 0)
(3.30045e-05 -3.5739e-06 0 -1.08187e-05 0 0)
(4.37726e-05 -8.0878e-06 0 -1.86875e-05 0 0)
(5.75389e-05 -5.66138e-06 0 -3.062e-05 0 0)
(3.61575e-05 -1.10711e-06 0 -1.5323e-05 0 0)
(3.79311e-05 -4.05289e-06 0 -1.57066e-05 0 0)
(9.98379e-05 -7.87825e-06 0 -3.69701e-05 0 0)
(5.5143e-05 -1.8191e-06 0 -2.93762e-05 0 0)
(3.02009e-05 -4.10224e-06 0 -8.33363e-06 0 0)
(2.0253e-05 -6.56057e-06 0 -5.79129e-06 0 0)
(3.20962e-05 -3.19657e-06 0 -9.192e-06 0 0)
(6.0251e-05 8.1423e-06 0 -2.17864e-05 0 0)
(4.60587e-05 -9.49202e-06 0 -2.21833e-05 0 0)
(5.25101e-05 1.00678e-05 0 -2.26284e-05 0 0)
(3.81161e-05 2.17343e-06 0 -1.46719e-05 0 0)
(3.04312e-05 -4.15939e-07 0 -5.43251e-06 0 0)
(3.49733e-05 -2.0497e-07 0 -1.48923e-05 0 0)
(2.72959e-05 -6.56063e-06 0 -7.92188e-06 0 0)
(3.30382e-05 -5.64333e-06 0 -1.11082e-05 0 0)
(1.01129e-05 -5.82103e-06 0 -8.61941e-06 0 0)
(1.53866e-05 -1.01451e-05 0 -8.79226e-06 0 0)
(5.90018e-05 4.93181e-06 0 -2.98036e-05 0 0)
(1.82622e-05 -1.39141e-05 0 -1.17847e-05 0 0)
(4.10716e-05 -4.99853e-06 0 -1.73593e-05 0 0)
(2.5645e-05 -1.6083e-05 0 -1.89072e-05 0 0)
(4.56874e-05 -5.99577e-06 0 -1.9388e-05 0 0)
(5.06464e-05 7.74892e-06 0 -1.92496e-05 0 0)
(1.24523e-05 2.84784e-07 0 -3.46248e-05 0 0)
)
;

boundaryField
{
    back
    {
        type            empty;
    }
    front
    {
        type            empty;
    }
    down
    {
        type            symmetry;
    }
    right
    {
        type            calculated;
    }
    up
    {
        type            calculated;
    }
    left
    {
        type            symmetry;
    }
    hole
    {
        type            calculated;
    }
}


// ************************************************************************* //
