/*--------------------------------*- C++ -*----------------------------------*\
| =========                 |                                                 |
| \\      /  F ield         | OpenFOAM: The Open Source CFD Toolbox           |
|  \\    /   O peration     | Version:  v2012                                 |
|   \\  /    A nd           | Website:  www.openfoam.com                      |
|    \\/     M anipulation  |                                                 |
\*---------------------------------------------------------------------------*/
FoamFile
{
    version     2.0;
    format      ascii;
    class       pointVectorField;
    location    "0.2";
    object      pointD;
}
// * * * * * * * * * * * * * * * * * * * * * * * * * * * * * * * * * * * * * //

dimensions      [0 1 0 0 0 0 0];


internalField   nonuniform List<vector> 
504
(
(6.87103e-05 0 0)
(9.96164e-05 0 0)
(9.25227e-05 -9.86256e-06 0)
(0 -4.70742e-05 0)
(0 -3.60253e-05 0)
(6.87103e-05 0 0)
(9.96164e-05 0 0)
(9.25227e-05 -9.86256e-06 0)
(0 -4.70742e-05 0)
(0 -3.60253e-05 0)
(6.99709e-05 0 0)
(7.07402e-05 0 0)
(7.14064e-05 0 0)
(7.24436e-05 0 0)
(7.38211e-05 0 0)
(7.55052e-05 0 0)
(7.74709e-05 0 0)
(7.96885e-05 0 0)
(8.21247e-05 0 0)
(8.47576e-05 0 0)
(8.7552e-05 0 0)
(9.04807e-05 0 0)
(9.34981e-05 0 0)
(9.65546e-05 0 0)
(9.94482e-05 -3.91701e-07 0)
(9.90406e-05 -8.49082e-07 0)
(9.83978e-05 -1.41281e-06 0)
(9.75592e-05 -2.13135e-06 0)
(9.66178e-05 -3.04057e-06 0)
(9.56251e-05 -4.14184e-06 0)
(9.4687e-05 -5.42039e-06 0)
(9.38482e-05 -6.84277e-06 0)
(9.31257e-05 -8.34612e-06 0)
(8.90495e-05 -1.04436e-05 0)
(8.5543e-05 -1.09712e-05 0)
(8.19604e-05 -1.13502e-05 0)
(7.82343e-05 -1.16524e-05 0)
(7.42996e-05 -1.18915e-05 0)
(7.01236e-05 -1.21381e-05 0)
(6.56405e-05 -1.24144e-05 0)
(6.08511e-05 -1.29047e-05 0)
(5.57015e-05 -1.36464e-05 0)
(5.02123e-05 -1.47955e-05 0)
(4.44016e-05 -1.64657e-05 0)
(3.83326e-05 -1.87711e-05 0)
(3.21184e-05 -2.17916e-05 0)
(2.59359e-05 -2.55555e-05 0)
(2.00145e-05 -2.99463e-05 0)
(1.45995e-05 -3.46788e-05 0)
(9.91777e-06 -3.93521e-05 0)
(5.97376e-06 -4.33262e-05 0)
(2.79841e-06 -4.6023e-05 0)
(0 -4.54802e-05 0)
(0 -4.38382e-05 0)
(0 -4.20544e-05 0)
(0 -3.97501e-05 0)
(1.40664e-05 -3.4368e-05 0)
(2.68811e-05 -3.1395e-05 0)
(3.88806e-05 -2.66659e-05 0)
(4.90009e-05 -2.14119e-05 0)
(5.74491e-05 -1.58317e-05 0)
(6.35522e-05 -1.06517e-05 0)
(6.73971e-05 -5.47643e-06 0)
(6.99709e-05 0 0)
(7.07402e-05 0 0)
(7.14064e-05 0 0)
(7.24436e-05 0 0)
(7.38211e-05 0 0)
(7.55052e-05 0 0)
(7.74709e-05 0 0)
(7.96885e-05 0 0)
(8.21247e-05 0 0)
(8.47576e-05 0 0)
(8.7552e-05 0 0)
(9.04807e-05 0 0)
(9.34981e-05 0 0)
(9.65546e-05 0 0)
(9.94482e-05 -3.91701e-07 0)
(9.90406e-05 -8.49082e-07 0)
(9.83978e-05 -1.41281e-06 0)
(9.75592e-05 -2.13135e-06 0)
(9.66178e-05 -3.04057e-06 0)
(9.56251e-05 -4.14184e-06 0)
(9.4687e-05 -5.42039e-06 0)
(9.38482e-05 -6.84277e-06 0)
(9.31257e-05 -8.34612e-06 0)
(8.90495e-05 -1.04436e-05 0)
(8.5543e-05 -1.09712e-05 0)
(8.19604e-05 -1.13502e-05 0)
(7.82343e-05 -1.16524e-05 0)
(7.42996e-05 -1.18915e-05 0)
(7.01236e-05 -1.21381e-05 0)
(6.56405e-05 -1.24144e-05 0)
(6.08511e-05 -1.29047e-05 0)
(5.57015e-05 -1.36464e-05 0)
(5.02123e-05 -1.47955e-05 0)
(4.44016e-05 -1.64657e-05 0)
(3.83326e-05 -1.87711e-05 0)
(3.21184e-05 -2.17916e-05 0)
(2.59359e-05 -2.55555e-05 0)
(2.00145e-05 -2.99463e-05 0)
(1.45995e-05 -3.46788e-05 0)
(9.91777e-06 -3.93521e-05 0)
(5.97376e-06 -4.33262e-05 0)
(2.79841e-06 -4.6023e-05 0)
(0 -4.54802e-05 0)
(0 -4.38382e-05 0)
(0 -4.20544e-05 0)
(0 -3.97501e-05 0)
(1.40664e-05 -3.4368e-05 0)
(2.68811e-05 -3.1395e-05 0)
(3.88806e-05 -2.66659e-05 0)
(4.90009e-05 -2.14119e-05 0)
(5.74491e-05 -1.58317e-05 0)
(6.35522e-05 -1.06517e-05 0)
(6.73971e-05 -5.47643e-06 0)
(7.61529e-05 -4.29411e-07 0)
(7.28412e-05 -1.05369e-05 0)
(4.35293e-05 -1.53571e-05 0)
(7.15342e-05 -4.39536e-07 0)
(5.90957e-05 -1.14768e-05 0)
(8.32401e-05 -5.85425e-07 0)
(9.32666e-05 -4.24879e-06 0)
(4.95787e-05 -1.50872e-05 0)
(2.63174e-05 -2.55032e-05 0)
(2.73366e-05 -2.90182e-05 0)
(9.55335e-05 -2.22008e-06 0)
(8.88352e-05 -6.45378e-07 0)
(8.07792e-05 -9.99517e-06 0)
(1.52486e-05 -3.53513e-05 0)
(4.62959e-06 -4.25298e-05 0)
(9.12906e-05 -6.71153e-06 0)
(6.62296e-05 -4.66563e-06 0)
(9.49159e-05 -5.71591e-07 0)
(5.75452e-06 -4.38472e-05 0)
(8.74875e-05 -9.40527e-06 0)
(3.78793e-05 -2.17714e-05 0)
(4.23953e-05 -1.62083e-05 0)
(5.08372e-05 -1.0857e-05 0)
(4.52095e-05 -1.28831e-05 0)
(5.25427e-05 -8.44265e-06 0)
(4.80809e-05 -1.0533e-05 0)
(5.47158e-05 -6.95329e-06 0)
(5.10961e-05 -8.8878e-06 0)
(5.70526e-05 -6.07428e-06 0)
(3.76716e-05 -1.7979e-05 0)
(5.42242e-05 -7.74524e-06 0)
(5.95153e-05 -5.59398e-06 0)
(6.23515e-05 -4.05233e-06 0)
(6.44245e-05 -3.95913e-06 0)
(6.20375e-05 -5.42448e-06 0)
(6.66788e-05 -4.08018e-06 0)
(6.47223e-05 -5.50692e-06 0)
(6.91164e-05 -4.36852e-06 0)
(6.75394e-05 -5.7846e-06 0)
(7.17169e-05 -4.7712e-06 0)
(7.30898e-05 -3.52063e-06 0)
(7.55539e-05 -3.97655e-06 0)
(7.44543e-05 -5.24248e-06 0)
(7.81693e-05 -4.45848e-06 0)
(7.73023e-05 -5.73717e-06 0)
(8.09011e-05 -4.9285e-06 0)
(8.16373e-05 -3.7755e-06 0)
(6.68927e-05 -2.6808e-06 0)
(5.97953e-05 -7.07244e-06 0)
(7.66719e-05 -2.87088e-06 0)
(8.42495e-05 -4.13163e-06 0)
(8.41049e-05 -5.30893e-06 0)
(5.83754e-05 -5.3822e-06 0)
(4.39291e-05 -1.29766e-05 0)
(8.48794e-05 -3.13324e-06 0)
(7.44505e-05 -2.45063e-06 0)
(7.35004e-05 -6.65291e-06 0)
(7.7572e-05 -1.97053e-06 0)
(7.65939e-05 -7.14296e-06 0)
(8.74773e-05 -3.40652e-06 0)
(8.7886e-05 -2.53936e-06 0)
(8.53158e-05 -2.09206e-06 0)
(6.53023e-05 -2.70662e-06 0)
(6.91715e-05 -1.65495e-06 0)
(7.06785e-05 -1.8182e-06 0)
(7.5571e-05 -1.58211e-06 0)
(7.86274e-05 -1.15885e-06 0)
(7.976e-05 -2.38838e-06 0)
(7.24717e-05 -9.20967e-07 0)
(6.7821e-05 -1.72604e-06 0)
(9.04781e-05 -2.73767e-06 0)
(9.05855e-05 -1.96069e-06 0)
(9.01616e-05 -3.6748e-06 0)
(1.54679e-05 -3.55327e-05 0)
(1.95025e-05 -3.27176e-05 0)
(2.78431e-05 -2.64355e-05 0)
(2.18461e-05 -3.03576e-05 0)
(1.5106e-05 -3.58266e-05 0)
(7.27309e-05 -8.12367e-06 0)
(6.94705e-05 -7.71557e-06 0)
(6.86496e-05 -9.31211e-06 0)
(1.79016e-05 -3.35977e-05 0)
(2.41001e-05 -2.80918e-05 0)
(5.84926e-05 -8.93934e-06 0)
(6.25922e-05 -4.77067e-06 0)
(6.72721e-05 -2.42092e-06 0)
(6.53819e-05 -8.92059e-06 0)
(7.55377e-05 -8.85764e-06 0)
(7.92864e-05 -7.69152e-06 0)
(6.52451e-05 -2.73604e-06 0)
(1.25865e-05 -3.81653e-05 0)
(6.8536e-05 -1.46949e-06 0)
(9.32521e-05 -2.11997e-06 0)
(2.06353e-05 -3.03053e-05 0)
(2.65229e-05 -2.57009e-05 0)
(3.22395e-05 -2.10817e-05 0)
(3.30208e-05 -2.05769e-05 0)
(3.82066e-05 -1.68078e-05 0)
(3.78359e-05 -1.73473e-05 0)
(4.34853e-05 -1.36421e-05 0)
(4.3277e-05 -1.44351e-05 0)
(4.82115e-05 -1.14339e-05 0)
(1.04098e-05 -4.01366e-05 0)
(4.90364e-05 -1.34728e-05 0)
(4.84925e-05 -1.23461e-05 0)
(5.35584e-05 -1.08826e-05 0)
(5.38711e-05 -9.33389e-06 0)
(5.4263e-05 -1.2204e-05 0)
(5.81591e-05 -1.01915e-05 0)
(3.78404e-05 -1.79533e-05 0)
(6.54944e-06 -4.02883e-05 0)
(6.63707e-05 -7.31406e-06 0)
(7.27194e-05 -3.95891e-07 0)
(7.4276e-05 -3.90471e-07 0)
(8.0672e-05 -5.26608e-07 0)
(8.15959e-05 -1.1795e-06 0)
(8.42265e-05 -1.25535e-06 0)
(7.82558e-05 -4.88474e-07 0)
(8.5998e-05 -6.25872e-07 0)
(8.69736e-05 -1.30782e-06 0)
(9.22244e-05 -5.41276e-06 0)
(8.87612e-05 -6.48802e-06 0)
(8.79136e-05 -7.85977e-06 0)
(8.53066e-05 -7.40548e-06 0)
(8.63565e-05 -6.03878e-06 0)
(8.45477e-05 -8.88167e-06 0)
(8.98507e-05 -5.24556e-06 0)
(8.80499e-05 -4.81033e-06 0)
(9.19224e-05 -6.39338e-07 0)
(9.38554e-05 -3.27213e-06 0)
(7.66766e-05 -1.03288e-05 0)
(7.08058e-05 -3.12783e-06 0)
(7.04956e-05 -6.17626e-06 0)
(8.02283e-05 -6.19943e-06 0)
(7.90523e-05 -3.33144e-06 0)
(8.22837e-05 -2.75288e-06 0)
(6.31326e-05 -7.05401e-06 0)
(6.87289e-05 -2.83972e-06 0)
(5.68602e-05 -7.30394e-06 0)
(7.37254e-05 -1.26875e-06 0)
(7.24332e-05 -2.08588e-06 0)
(3.20756e-05 -2.13359e-05 0)
(6.03939e-05 -4.43183e-06 0)
(6.40857e-05 -1.08214e-05 0)
(9.35993e-05 -1.28434e-06 0)
(4.11055e-05 -1.49663e-05 0)
(2.91214e-05 -2.41984e-05 0)
(9.68498e-05 -8.51811e-07 0)
(6.37333e-05 -3.06318e-06 0)
(3.52145e-06 -4.43133e-05 0)
(9.06372e-05 -8.07605e-06 0)
(8.18583e-05 -8.32496e-06 0)
(9.0021e-05 -1.29568e-06 0)
(5.83222e-05 -8.71893e-06 0)
(2.0089e-05 -3.14067e-05 0)
(4.85653e-05 -1.05524e-05 0)
(3.4146e-05 -1.99083e-05 0)
(8.28568e-05 -6.72704e-06 0)
(5.69884e-05 -6.87365e-06 0)
(8.23658e-05 -1.8925e-06 0)
(7.08206e-05 -9.40767e-07 0)
(6.93536e-05 -1.51768e-06 0)
(7.62163e-05 -9.00352e-07 0)
(9.64462e-05 -1.49313e-06 0)
(1.29623e-05 -3.7034e-05 0)
(6.97773e-05 -1.01185e-06 0)
(6.85693e-05 -1.08375e-05 0)
(9.10455e-05 -4.26303e-06 0)
(6.22811e-05 -8.60806e-06 0)
(3.51515e-05 -2.09673e-05 0)
(8.40921e-05 -1.01481e-05 0)
(7.87683e-05 -9.08755e-06 0)
(7.28834e-06 -3.81663e-05 0)
(3.80705e-05 -1.689e-05 0)
(8.79546e-05 -1.8446e-06 0)
(7.45002e-05 -7.5435e-07 0)
(9.2677e-05 -2.81707e-06 0)
(9.83662e-06 -3.96785e-05 0)
(5.23936e-05 -9.12859e-06 0)
(1.49832e-05 -3.60973e-05 0)
(2.83163e-06 -4.54259e-05 0)
(9.72932e-05 -4.05399e-07 0)
(9.04007e-05 -9.20238e-06 0)
(8.0007e-05 -1.68993e-06 0)
(8.67274e-05 -4.26143e-06 0)
(7.06717e-05 -5.49104e-07 0)
(6.96499e-05 -1.07508e-06 0)
(2.93125e-05 -2.36471e-05 0)
(6.69838e-05 -1.96524e-06 0)
(7.18191e-05 -9.41702e-06 0)
(6.14436e-05 -4.3383e-06 0)
(6.18953e-05 -9.93208e-06 0)
(7.76935e-06 -4.18958e-05 0)
(6.90909e-05 -2.08287e-06 0)
(7.61529e-05 -4.29411e-07 0)
(7.28412e-05 -1.05369e-05 0)
(4.35293e-05 -1.53571e-05 0)
(7.15342e-05 -4.39536e-07 0)
(5.90957e-05 -1.14768e-05 0)
(8.32401e-05 -5.85425e-07 0)
(9.32666e-05 -4.24879e-06 0)
(4.95787e-05 -1.50872e-05 0)
(2.63174e-05 -2.55032e-05 0)
(2.73366e-05 -2.90182e-05 0)
(9.55335e-05 -2.22008e-06 0)
(8.88352e-05 -6.45378e-07 0)
(8.07792e-05 -9.99517e-06 0)
(1.52486e-05 -3.53513e-05 0)
(4.62959e-06 -4.25298e-05 0)
(9.12906e-05 -6.71153e-06 0)
(6.62296e-05 -4.66563e-06 0)
(9.49159e-05 -5.71591e-07 0)
(5.75452e-06 -4.38472e-05 0)
(8.74875e-05 -9.40527e-06 0)
(3.78793e-05 -2.17714e-05 0)
(4.23953e-05 -1.62083e-05 0)
(5.08372e-05 -1.0857e-05 0)
(4.52095e-05 -1.28831e-05 0)
(5.25427e-05 -8.44265e-06 0)
(4.80809e-05 -1.0533e-05 0)
(5.47158e-05 -6.95329e-06 0)
(5.10961e-05 -8.8878e-06 0)
(5.70526e-05 -6.07428e-06 0)
(3.76716e-05 -1.7979e-05 0)
(5.42242e-05 -7.74524e-06 0)
(5.95153e-05 -5.59398e-06 0)
(6.23515e-05 -4.05233e-06 0)
(6.44245e-05 -3.95913e-06 0)
(6.20375e-05 -5.42448e-06 0)
(6.66788e-05 -4.08018e-06 0)
(6.47223e-05 -5.50692e-06 0)
(6.91164e-05 -4.36852e-06 0)
(6.75394e-05 -5.7846e-06 0)
(7.17169e-05 -4.7712e-06 0)
(7.30898e-05 -3.52063e-06 0)
(7.55539e-05 -3.97655e-06 0)
(7.44543e-05 -5.24248e-06 0)
(7.81693e-05 -4.45848e-06 0)
(7.73023e-05 -5.73717e-06 0)
(8.09011e-05 -4.9285e-06 0)
(8.16373e-05 -3.7755e-06 0)
(6.68927e-05 -2.6808e-06 0)
(5.97953e-05 -7.07244e-06 0)
(7.66719e-05 -2.87088e-06 0)
(8.42495e-05 -4.13163e-06 0)
(8.41049e-05 -5.30893e-06 0)
(5.83754e-05 -5.3822e-06 0)
(4.39291e-05 -1.29766e-05 0)
(8.48794e-05 -3.13324e-06 0)
(7.44505e-05 -2.45063e-06 0)
(7.35004e-05 -6.65291e-06 0)
(7.7572e-05 -1.97053e-06 0)
(7.65939e-05 -7.14296e-06 0)
(8.74773e-05 -3.40652e-06 0)
(8.7886e-05 -2.53936e-06 0)
(8.53158e-05 -2.09206e-06 0)
(6.53023e-05 -2.70662e-06 0)
(6.91715e-05 -1.65495e-06 0)
(7.06785e-05 -1.8182e-06 0)
(7.5571e-05 -1.58211e-06 0)
(7.86274e-05 -1.15885e-06 0)
(7.976e-05 -2.38838e-06 0)
(7.24717e-05 -9.20967e-07 0)
(6.7821e-05 -1.72604e-06 0)
(9.04781e-05 -2.73767e-06 0)
(9.05855e-05 -1.96069e-06 0)
(9.01616e-05 -3.6748e-06 0)
(1.54679e-05 -3.55327e-05 0)
(1.95025e-05 -3.27176e-05 0)
(2.78431e-05 -2.64355e-05 0)
(2.18461e-05 -3.03576e-05 0)
(1.5106e-05 -3.58266e-05 0)
(7.27309e-05 -8.12367e-06 0)
(6.94705e-05 -7.71557e-06 0)
(6.86496e-05 -9.31211e-06 0)
(1.79016e-05 -3.35977e-05 0)
(2.41001e-05 -2.80918e-05 0)
(5.84926e-05 -8.93934e-06 0)
(6.25922e-05 -4.77067e-06 0)
(6.72721e-05 -2.42092e-06 0)
(6.53819e-05 -8.92059e-06 0)
(7.55377e-05 -8.85764e-06 0)
(7.92864e-05 -7.69152e-06 0)
(6.52451e-05 -2.73604e-06 0)
(1.25865e-05 -3.81653e-05 0)
(6.8536e-05 -1.46949e-06 0)
(9.32521e-05 -2.11997e-06 0)
(2.06353e-05 -3.03053e-05 0)
(2.65229e-05 -2.57009e-05 0)
(3.22395e-05 -2.10817e-05 0)
(3.30208e-05 -2.05769e-05 0)
(3.82066e-05 -1.68078e-05 0)
(3.78359e-05 -1.73473e-05 0)
(4.34853e-05 -1.36421e-05 0)
(4.3277e-05 -1.44351e-05 0)
(4.82115e-05 -1.14339e-05 0)
(1.04098e-05 -4.01366e-05 0)
(4.90364e-05 -1.34728e-05 0)
(4.84925e-05 -1.23461e-05 0)
(5.35584e-05 -1.08826e-05 0)
(5.38711e-05 -9.33389e-06 0)
(5.4263e-05 -1.2204e-05 0)
(5.81591e-05 -1.01915e-05 0)
(3.78404e-05 -1.79533e-05 0)
(6.54944e-06 -4.02883e-05 0)
(6.63707e-05 -7.31406e-06 0)
(7.27194e-05 -3.95891e-07 0)
(7.4276e-05 -3.90471e-07 0)
(8.0672e-05 -5.26608e-07 0)
(8.15959e-05 -1.1795e-06 0)
(8.42265e-05 -1.25535e-06 0)
(7.82558e-05 -4.88474e-07 0)
(8.5998e-05 -6.25872e-07 0)
(8.69736e-05 -1.30782e-06 0)
(9.22244e-05 -5.41276e-06 0)
(8.87612e-05 -6.48802e-06 0)
(8.79136e-05 -7.85977e-06 0)
(8.53066e-05 -7.40548e-06 0)
(8.63565e-05 -6.03878e-06 0)
(8.45477e-05 -8.88167e-06 0)
(8.98507e-05 -5.24556e-06 0)
(8.80499e-05 -4.81033e-06 0)
(9.19224e-05 -6.39338e-07 0)
(9.38554e-05 -3.27213e-06 0)
(7.66766e-05 -1.03288e-05 0)
(7.08058e-05 -3.12783e-06 0)
(7.04956e-05 -6.17626e-06 0)
(8.02283e-05 -6.19943e-06 0)
(7.90523e-05 -3.33144e-06 0)
(8.22837e-05 -2.75288e-06 0)
(6.31326e-05 -7.05401e-06 0)
(6.87289e-05 -2.83972e-06 0)
(5.68602e-05 -7.30394e-06 0)
(7.37254e-05 -1.26875e-06 0)
(7.24332e-05 -2.08588e-06 0)
(3.20756e-05 -2.13359e-05 0)
(6.03939e-05 -4.43183e-06 0)
(6.40857e-05 -1.08214e-05 0)
(9.35993e-05 -1.28434e-06 0)
(4.11055e-05 -1.49663e-05 0)
(2.91214e-05 -2.41984e-05 0)
(9.68498e-05 -8.51811e-07 0)
(6.37333e-05 -3.06318e-06 0)
(3.52145e-06 -4.43133e-05 0)
(9.06372e-05 -8.07605e-06 0)
(8.18583e-05 -8.32496e-06 0)
(9.0021e-05 -1.29568e-06 0)
(5.83222e-05 -8.71893e-06 0)
(2.0089e-05 -3.14067e-05 0)
(4.85653e-05 -1.05524e-05 0)
(3.4146e-05 -1.99083e-05 0)
(8.28568e-05 -6.72704e-06 0)
(5.69884e-05 -6.87365e-06 0)
(8.23658e-05 -1.8925e-06 0)
(7.08206e-05 -9.40767e-07 0)
(6.93536e-05 -1.51768e-06 0)
(7.62163e-05 -9.00352e-07 0)
(9.64462e-05 -1.49313e-06 0)
(1.29623e-05 -3.7034e-05 0)
(6.97773e-05 -1.01185e-06 0)
(6.85693e-05 -1.08375e-05 0)
(9.10455e-05 -4.26303e-06 0)
(6.22811e-05 -8.60806e-06 0)
(3.51515e-05 -2.09673e-05 0)
(8.40921e-05 -1.01481e-05 0)
(7.87683e-05 -9.08755e-06 0)
(7.28834e-06 -3.81663e-05 0)
(3.80705e-05 -1.689e-05 0)
(8.79546e-05 -1.8446e-06 0)
(7.45002e-05 -7.5435e-07 0)
(9.2677e-05 -2.81707e-06 0)
(9.83662e-06 -3.96785e-05 0)
(5.23936e-05 -9.12859e-06 0)
(1.49832e-05 -3.60973e-05 0)
(2.83163e-06 -4.54259e-05 0)
(9.72932e-05 -4.05399e-07 0)
(9.04007e-05 -9.20238e-06 0)
(8.0007e-05 -1.68993e-06 0)
(8.67274e-05 -4.26143e-06 0)
(7.06717e-05 -5.49104e-07 0)
(6.96499e-05 -1.07508e-06 0)
(2.93125e-05 -2.36471e-05 0)
(6.69838e-05 -1.96524e-06 0)
(7.18191e-05 -9.41702e-06 0)
(6.14436e-05 -4.3383e-06 0)
(6.18953e-05 -9.93208e-06 0)
(7.76935e-06 -4.18958e-05 0)
(6.90909e-05 -2.08287e-06 0)
)
;

boundaryField
{
    back
    {
        type            empty;
    }
    front
    {
        type            empty;
    }
    down
    {
        type            symmetry;
    }
    right
    {
        type            pointSolidTraction;
        tractionSeries  
{
        fileName        "$FOAM_CASE/constant/timeVsTraction";
        outOfBounds     clamp;
}
        pressure        uniform 0;
    }
    up
    {
        type            pointSolidTraction;
        traction        uniform (0 0 0);
        pressure        uniform 0;
    }
    left
    {
        type            symmetry;
    }
    hole
    {
        type            pointSolidTraction;
        traction        uniform (0 0 0);
        pressure        uniform 0;
    }
}


// ************************************************************************* //
