/*--------------------------------*- C++ -*----------------------------------*\
| =========                 |                                                 |
| \\      /  F ield         | OpenFOAM: The Open Source CFD Toolbox           |
|  \\    /   O peration     | Version:  v2012                                 |
|   \\  /    A nd           | Website:  www.openfoam.com                      |
|    \\/     M anipulation  |                                                 |
\*---------------------------------------------------------------------------*/
FoamFile
{
    version     2.0;
    format      ascii;
    class       volScalarField;
    location    "0.2";
    object      sigmaEq;
}
// * * * * * * * * * * * * * * * * * * * * * * * * * * * * * * * * * * * * * //

dimensions      [1 -1 -2 0 0 0 0];


internalField   nonuniform List<scalar> 
444
(
3.02137e+06
4.70756e+06
2.99279e+06
1.8642e+06
3.9077e+06
1.23972e+06
1.34683e+06
1.88204e+06
4.06318e+06
1.88627e+06
2.43157e+06
3.57428e+06
855442
1.33598e+06
3.15857e+06
2.4268e+06
2.74016e+06
4.04925e+06
2.29029e+06
3.13515e+06
4.65434e+06
1.94293e+06
4.28561e+06
1.65756e+06
3.8246e+06
2.24202e+06
2.43656e+06
1.95963e+06
2.12748e+06
1.85393e+06
2.35271e+06
2.06586e+06
1.53265e+06
3.89889e+06
4.62265e+06
5.4453e+06
5.83936e+06
2.4478e+06
3.25049e+06
1.37484e+06
3.11961e+06
2.50874e+06
1.88286e+06
2.4856e+06
2.4795e+06
3.93725e+06
1.7221e+06
5.03585e+06
1.20735e+06
1.31337e+06
1.80033e+06
2.97677e+06
2.79387e+06
2.37558e+06
3.53017e+06
1.47044e+06
1.32206e+06
3.27116e+06
3.70087e+06
1.81475e+06
1.28694e+06
2.39098e+06
2.15923e+06
3.13865e+06
4.16672e+06
3.07051e+06
2.18363e+06
1.94758e+06
3.88352e+06
4.36916e+06
3.23911e+06
3.38551e+06
1.81347e+06
1.96729e+06
4.73532e+06
3.41135e+06
3.72543e+06
3.62939e+06
3.94885e+06
3.89177e+06
2.57818e+06
3.82968e+06
4.84505e+06
4.26324e+06
4.00831e+06
2.5189e+06
4.25104e+06
1.76308e+06
4.15741e+06
3.964e+06
2.65575e+06
3.8391e+06
2.20477e+06
3.9544e+06
4.17748e+06
4.64817e+06
4.09461e+06
3.4585e+06
3.42413e+06
3.61342e+06
3.76314e+06
2.98435e+06
3.80325e+06
3.25295e+06
3.94188e+06
3.36334e+06
4.08235e+06
3.75421e+06
4.15702e+06
3.74509e+06
3.97626e+06
3.9041e+06
2.83592e+06
2.75922e+06
3.94499e+06
3.63473e+06
2.62663e+06
3.60214e+06
3.5411e+06
2.72178e+06
1.17217e+06
3.82637e+06
907104
3.47209e+06
2.15839e+06
2.21728e+06
926853
1.04849e+06
2.52859e+06
1.64316e+06
1.81193e+06
804689
2.70074e+06
2.33313e+06
1.81436e+06
1.78642e+06
2.37699e+06
2.30354e+06
1.06994e+06
1.50781e+06
1.58864e+06
1.73663e+06
2.32197e+06
2.2471e+06
2.25437e+06
2.884e+06
1.73458e+06
2.29569e+06
2.19118e+06
2.15126e+06
2.3929e+06
2.11339e+06
2.2715e+06
1.84414e+06
2.25452e+06
2.02782e+06
2.00484e+06
1.86503e+06
1.85024e+06
2.34524e+06
1.8149e+06
1.63406e+06
1.85492e+06
3.52287e+06
1.2275e+06
2.53924e+06
2.68964e+06
2.85146e+06
1.90834e+06
2.62461e+06
2.74815e+06
2.77892e+06
2.39225e+06
1.6976e+06
2.97022e+06
1.73428e+06
2.08128e+06
2.04342e+06
2.81254e+06
2.02263e+06
2.30391e+06
2.59235e+06
1.99135e+06
2.29932e+06
2.49204e+06
2.07282e+06
2.06413e+06
2.39154e+06
2.16814e+06
2.15417e+06
2.25879e+06
2.53773e+06
2.20334e+06
2.14246e+06
2.64109e+06
2.70175e+06
2.59917e+06
2.4819e+06
2.0385e+06
2.46277e+06
2.40889e+06
2.36746e+06
1.97396e+06
2.26663e+06
1.76525e+06
2.40257e+06
2.55753e+06
2.23557e+06
2.47342e+06
2.43846e+06
2.02688e+06
2.25521e+06
2.49813e+06
2.41793e+06
2.64164e+06
2.09305e+06
2.02048e+06
2.29313e+06
2.68156e+06
3.74738e+06
2.61181e+06
2.57324e+06
2.15458e+06
2.23403e+06
2.09474e+06
2.90118e+06
3.32654e+06
3.15931e+06
2.13519e+06
2.99916e+06
1.9495e+06
3.5724e+06
2.72316e+06
2.16752e+06
2.90519e+06
2.46752e+06
3.63542e+06
2.98059e+06
2.83848e+06
2.50826e+06
2.6534e+06
2.82216e+06
2.43287e+06
3.86463e+06
1.76735e+06
3.99221e+06
2.71215e+06
2.77214e+06
2.55079e+06
4.16205e+06
2.17419e+06
2.20369e+06
3.54904e+06
3.06711e+06
2.14911e+06
2.14386e+06
1.89434e+06
2.17774e+06
2.02827e+06
1.80503e+06
3.25242e+06
2.80115e+06
3.75379e+06
5.81011e+06
3.60692e+06
3.56739e+06
2.94626e+06
1.86032e+06
3.26877e+06
3.8187e+06
3.11615e+06
3.34624e+06
3.59465e+06
4.21821e+06
3.29651e+06
1.83284e+06
3.47784e+06
4.04969e+06
3.86057e+06
1.72195e+06
3.27311e+06
2.80628e+06
4.02696e+06
4.15858e+06
7.68449e+06
3.76092e+06
3.33417e+06
2.92045e+06
3.0433e+06
3.99848e+06
4.40828e+06
3.09598e+06
1.92398e+06
3.93143e+06
4.31709e+06
2.53641e+06
4.54714e+06
1.70563e+06
3.03657e+06
2.16613e+06
3.0581e+06
2.37309e+06
2.39302e+06
1.92898e+06
2.7544e+06
3.93408e+06
1.87241e+06
3.22799e+06
1.41388e+06
3.71759e+06
2.41203e+06
1.51629e+06
4.42941e+06
4.08964e+06
3.16546e+06
1.97391e+06
1.69403e+06
1.93447e+06
1.70726e+06
3.8803e+06
3.49208e+06
1.889e+06
2.6074e+06
2.24939e+06
1.93223e+06
3.44642e+06
2.63657e+06
2.33665e+06
6.52624e+06
9.14163e+06
2.91256e+06
2.11601e+06
2.20425e+06
2.47665e+06
3.03748e+06
4.49826e+06
2.94016e+06
1.85832e+06
3.37949e+06
3.67668e+06
2.02099e+06
2.46244e+06
2.49461e+06
3.73288e+06
1.41376e+06
3.69736e+06
2.00466e+06
3.38852e+06
1.91372e+06
2.63751e+06
1.73336e+06
1.81694e+06
2.37245e+06
2.40031e+06
1.84378e+06
744319
2.16147e+06
2.25066e+06
4.04271e+06
2.74695e+06
2.45791e+06
3.33526e+06
1.57102e+06
2.03449e+06
1.96691e+06
1.73289e+06
2.89452e+06
2.64724e+06
1.6464e+06
1.98772e+06
2.59968e+06
6.39557e+06
1.824e+06
1.2967e+06
3.78359e+06
4.67969e+06
1.42454e+06
1.38762e+06
1.88294e+06
3.48743e+06
3.89597e+06
2.53217e+06
1.05754e+06
1.82543e+06
1.19663e+06
1.91451e+06
1.91851e+06
3.06036e+06
3.91273e+06
2.17554e+06
4.27896e+06
1.38935e+06
3.03313e+06
4.10213e+06
4.34306e+06
1.93475e+06
1.44491e+06
2.44088e+06
1.69117e+06
2.8863e+06
3.25666e+06
5.5823e+06
3.12361e+06
1.57631e+06
4.07492e+06
1.3019e+06
3.20606e+06
2.08502e+06
2.79291e+06
2.37102e+06
4.11951e+06
4.27279e+06
3.24288e+06
3.37513e+06
2.20696e+06
2.71122e+06
1.83721e+06
2.39357e+06
4.20699e+06
1.88324e+06
4.03888e+06
2.26401e+06
1.81566e+06
823260
2.17258e+06
2.184e+06
1.93259e+06
2.78351e+06
2.87072e+06
3.68029e+06
2.77563e+06
2.3966e+06
1.89702e+06
2.03546e+06
1.17291e+06
3.67508e+06
3.22023e+06
2.79236e+06
4.26568e+06
3.23725e+06
1.41439e+06
1.70354e+06
1.71121e+06
3.03415e+06
)
;

boundaryField
{
    back
    {
        type            empty;
    }
    front
    {
        type            empty;
    }
    down
    {
        type            symmetry;
    }
    right
    {
        type            calculated;
        value           nonuniform List<scalar> 10(1.76308e+06 2.15126e+06 2.25452e+06 2.02782e+06 2.34524e+06 1.90834e+06 2.39302e+06 1.73336e+06 2.40031e+06 1.824e+06);
    }
    up
    {
        type            calculated;
        value           nonuniform List<scalar> 
20
(
4.26324e+06
4.25104e+06
3.25295e+06
4.08235e+06
3.75421e+06
4.15702e+06
3.74509e+06
3.97626e+06
2.72178e+06
2.15839e+06
2.3929e+06
3.52287e+06
2.53924e+06
2.68964e+06
2.85146e+06
3.27311e+06
1.91372e+06
2.37245e+06
3.06036e+06
2.44088e+06
)
;
    }
    left
    {
        type            symmetry;
    }
    hole
    {
        type            calculated;
        value           nonuniform List<scalar> 8(2.02827e+06 5.81011e+06 3.56739e+06 1.83284e+06 2.80628e+06 7.68449e+06 9.14163e+06 3.68029e+06);
    }
}


// ************************************************************************* //
