/*--------------------------------*- C++ -*----------------------------------*\
| =========                 |                                                 |
| \\      /  F ield         | OpenFOAM: The Open Source CFD Toolbox           |
|  \\    /   O peration     | Version:  v2012                                 |
|   \\  /    A nd           | Website:  www.openfoam.com                      |
|    \\/     M anipulation  |                                                 |
\*---------------------------------------------------------------------------*/
FoamFile
{
    version     2.0;
    format      ascii;
    class       volScalarField;
    location    "0.2";
    object      sigmaHyd;
}
// * * * * * * * * * * * * * * * * * * * * * * * * * * * * * * * * * * * * * //

dimensions      [1 -1 -2 0 0 0 0];


internalField   nonuniform List<scalar> 
444
(
415276
2.26125e+06
485088
1.20171e+06
1.46319e+06
637757
707485
1.23748e+06
1.54813e+06
1.35087e+06
1.24535e+06
1.45448e+06
-317247
-637001
1.30029e+06
1.22948e+06
1.35479e+06
1.73608e+06
1.2675e+06
1.50605e+06
2.68851e+06
1.32129e+06
1.8215e+06
1.13214e+06
2.38761e+06
63786
1.18367e+06
1.38396e+06
1.26913e+06
1.4109e+06
1.25603e+06
1.35654e+06
1.01175e+06
1.43562e+06
2.829e+06
3.08044e+06
3.517e+06
-149654
1.51182e+06
973679
1.45114e+06
1.31649e+06
1.35895e+06
1.22026e+06
834915
1.73207e+06
257042
2.38728e+06
458130
-519532
1.14549e+06
1.39669e+06
1.36574e+06
1.17105e+06
1.7563e+06
1.0531e+06
939909
1.47211e+06
1.47559e+06
1.19126e+06
486616
1.28438e+06
1.32525e+06
1.63377e+06
1.40553e+06
1.53623e+06
1.26617e+06
-1.03047e+06
1.60263e+06
2.02264e+06
706883
1.44151e+06
-314987
-849817
2.03045e+06
1.56367e+06
1.61904e+06
1.72635e+06
1.80756e+06
1.8839e+06
1.31184e+06
2.15389e+06
2.36063e+06
2.04982e+06
1.21133e+06
1.27822e+06
2.02726e+06
1.49498e+06
1.87633e+06
1.73706e+06
424327
1.86634e+06
58503.6
1.91617e+06
2.71152e+06
2.86762e+06
1.63933e+06
1.67314e+06
1.65601e+06
1.75625e+06
1.81988e+06
1.45246e+06
1.78351e+06
1.53122e+06
1.84845e+06
1.63155e+06
1.93442e+06
1.83447e+06
2.01356e+06
1.76794e+06
1.9361e+06
1.7231e+06
1.42583e+06
1.26454e+06
1.91464e+06
2.2498e+06
940668
1.74086e+06
1.60677e+06
1.3344e+06
818504
1.13003e+06
483547
1.65499e+06
1.11534e+06
1.27287e+06
539278
696460
784888
1.08824e+06
1.24587e+06
294646
1.2793e+06
1.23153e+06
1.22946e+06
1.25323e+06
1.26089e+06
1.24452e+06
719340
1.06641e+06
1.12355e+06
1.19087e+06
1.20363e+06
1.27447e+06
1.23955e+06
1.334e+06
1.20908e+06
1.26714e+06
1.26065e+06
1.29593e+06
1.17554e+06
1.29974e+06
1.21725e+06
1.313e+06
1.23432e+06
1.34908e+06
1.37191e+06
1.37943e+06
1.39794e+06
1.19115e+06
1.27083e+06
1.14152e+06
1.33324e+06
1.72143e+06
857414
1.25694e+06
1.31643e+06
1.40245e+06
1.40349e+06
1.2786e+06
1.33484e+06
1.41965e+06
1.19976e+06
1.19038e+06
1.50167e+06
1.16794e+06
1.30927e+06
1.26225e+06
1.32954e+06
1.32555e+06
1.28127e+06
1.25777e+06
1.31166e+06
1.30127e+06
1.20695e+06
1.28462e+06
1.28278e+06
1.22793e+06
1.2758e+06
1.25649e+06
1.22758e+06
1.24199e+06
1.12118e+06
1.2392e+06
1.26672e+06
1.3808e+06
1.35488e+06
1.25679e+06
1.14538e+06
1.30839e+06
1.17332e+06
1.23621e+06
1.08057e+06
1.21325e+06
1.04897e+06
1.20964e+06
1.34689e+06
1.15893e+06
1.28906e+06
1.31951e+06
1.13284e+06
1.20901e+06
1.24056e+06
1.1178e+06
1.35692e+06
1.18557e+06
1.24638e+06
1.25207e+06
1.34554e+06
1.6743e+06
1.19294e+06
1.22598e+06
622666
1.17653e+06
1.18883e+06
1.19933e+06
1.58713e+06
1.30586e+06
1.2272e+06
1.12528e+06
1.05297e+06
1.60448e+06
1.31934e+06
855691
1.41559e+06
928825
1.72918e+06
1.4069e+06
1.22193e+06
1.13964e+06
1.14283e+06
1.24225e+06
1.04107e+06
1.63105e+06
825587
1.63502e+06
1.06554e+06
1.28299e+06
1.04912e+06
1.83336e+06
985787
1.08093e+06
742563
1.39049e+06
945353
802162
981999
1.04581e+06
602122
866554
1.58067e+06
954115
1.78107e+06
3.49349e+06
1.12462e+06
1.95025e+06
1.13824e+06
945162
929937
1.17191e+06
1.02855e+06
1.25919e+06
1.23201e+06
2.11142e+06
919083
-535741
816245
1.77131e+06
1.82453e+06
-50123.1
1.60592e+06
-1.31408e+06
1.8095e+06
1.41125e+06
4.49173e+06
1.08122e+06
1.90316e+06
817923
677145
1.96391e+06
2.10505e+06
1.04909e+06
1.35607e+06
1.39978e+06
1.75825e+06
455460
1.9724e+06
1.05804e+06
1.32477e+06
687942
1.75372e+06
1.22487e+06
1.16294e+06
1.29377e+06
774812
1.82365e+06
1.29099e+06
1.46795e+06
874998
1.38724e+06
1.30848e+06
1.01472e+06
1.66842e+06
1.71158e+06
554721
1.20062e+06
644780
1.38559e+06
1.02686e+06
1.79702e+06
1.4269e+06
1.41402e+06
603110
1.30765e+06
1.41089e+06
2.01533e+06
1.2785e+06
1.18013e+06
3.55153e+06
5.48173e+06
1.41307e+06
1.33372e+06
1.26855e+06
1.29311e+06
1.46718e+06
2.49984e+06
1.3388e+06
1.29084e+06
1.61242e+06
1.8123e+06
1.36511e+06
1.20294e+06
1.20803e+06
1.69708e+06
930191
1.33873e+06
1.34588e+06
1.18559e+06
932201
1.32656e+06
1.52461e+06
1.46299e+06
1.16102e+06
1.15804e+06
1.14357e+06
-41142.3
1.2821e+06
1.23492e+06
1.37087e+06
1.30706e+06
1.23544e+06
723452
-576044
1.32063e+06
1.20659e+06
692677
1.42048e+06
1.36237e+06
961639
1.29277e+06
1.29349e+06
2.80634e+06
1.46056e+06
241319
1.78277e+06
2.58106e+06
-391411
-11660.7
1.43851e+06
1.40226e+06
1.31133e+06
1.23018e+06
-85343.7
1.45396e+06
234999
1.15135e+06
1.31634e+06
1.5084e+06
1.82541e+06
1.27285e+06
1.63701e+06
907350
1.49303e+06
2.16064e+06
1.60201e+06
1.25009e+06
784644
1.20812e+06
467197
1.35463e+06
1.56077e+06
3.53461e+06
1.57045e+06
932572
1.48565e+06
778542
1.54501e+06
1.29219e+06
1.49694e+06
1.16173e+06
2.15765e+06
1.74736e+06
1.22947e+06
1.59692e+06
466738
1.41956e+06
1.44685e+06
1.16893e+06
1.56249e+06
1.1203e+06
1.59925e+06
-1.25747e+06
1.43178e+06
200443
176360
1.30174e+06
348993
575920
1.45038e+06
-1.85817e+06
1.46504e+06
1.20046e+06
1.24978e+06
312397
-84839.1
1.95281e+06
1.66673e+06
316349
1.59268e+06
1.58946e+06
-918551
196895
501999
1.40898e+06
)
;

boundaryField
{
    back
    {
        type            empty;
    }
    front
    {
        type            empty;
    }
    down
    {
        type            symmetry;
    }
    right
    {
        type            zeroGradient;
    }
    up
    {
        type            zeroGradient;
    }
    left
    {
        type            symmetry;
    }
    hole
    {
        type            zeroGradient;
    }
}


// ************************************************************************* //
