/*--------------------------------*- C++ -*----------------------------------*\
| =========                 |                                                 |
| \\      /  F ield         | OpenFOAM: The Open Source CFD Toolbox           |
|  \\    /   O peration     | Version:  v2012                                 |
|   \\  /    A nd           | Website:  www.openfoam.com                      |
|    \\/     M anipulation  |                                                 |
\*---------------------------------------------------------------------------*/
FoamFile
{
    version     2.0;
    format      ascii;
    class       volSymmTensorField;
    location    "0.2";
    object      sigma;
}
// * * * * * * * * * * * * * * * * * * * * * * * * * * * * * * * * * * * * * //

dimensions      [1 -1 -2 0 0 0 0];


internalField   nonuniform List<symmTensor> 
444
(
(1.9294e+06 -963043 -1.4595e-09 -971074 9.12189e-11 287499)
(5.22347e+06 -435003 7.29751e-10 -5194.71 -7.29751e-10 1.56548e+06)
(2.17653e+06 -595659 -2.18925e-09 -1.05709e+06 3.64876e-10 335830)
(2.38409e+06 -246730 4.37851e-09 389094 -4.56095e-11 831954)
(3.89829e+06 -232272 0 -521697 -1.82438e-10 1.01298e+06)
(1.3235e+06 -371635 -2.91901e-09 148243 5.70118e-12 441524)
(1.46692e+06 -381903 0 165742 0 489798)
(2.42928e+06 -262908 0 426443 0 856717)
(4.05126e+06 -450531 0 -478642 -1.09463e-09 1.07178e+06)
(2.58216e+06 -94609.8 -1.4595e-09 535224 0 935214)
(2.79715e+06 -102622 0 76724.5 1.82438e-10 862164)
(3.68106e+06 -311506 7.29751e-10 -324565 -5.47314e-10 1.00695e+06)
(109581 -102721 -1.4595e-09 -841690 2.28047e-11 -219633)
(-26747.8 -254000 0 -1.44325e+06 -2.28047e-11 -441001)
(3.18833e+06 -596778 -1.4595e-09 -187665 3.64876e-10 900198)
(2.76081e+06 -233152 -1.4595e-09 76455.4 0 851178)
(3.08941e+06 -207897 0 37026.1 -1.82438e-10 937932)
(4.24647e+06 468043 3.64876e-10 -240134 -7.29751e-10 1.2019e+06)
(2.70864e+06 -285545 0 216359 -9.12189e-11 877501)
(3.43819e+06 -473138 2.18925e-09 37321.9 -5.47314e-10 1.04265e+06)
(5.66546e+06 370242 0 538797 0 1.86128e+06)
(2.57633e+06 -167798 1.4595e-09 472796 2.28047e-11 914737)
(4.49515e+06 397662 7.29751e-10 -291677 0 1.26104e+06)
(2.18667e+06 -223164 -1.4595e-09 425963 4.56095e-11 783788)
(4.82362e+06 437698 0 686239 -2.18925e-09 1.65296e+06)
(1.20123e+06 -635385 -7.29751e-10 -1.05403e+06 9.12189e-11 44159.5)
(2.73463e+06 -75250.6 -1.4595e-09 -3096.11 0 819461)
(2.66102e+06 -107915 1.4595e-09 532735 0 958127)
(2.62895e+06 -195274 -2.91901e-09 299809 0 878628)
(2.62591e+06 -91877.7 -1.4595e-09 630019 0 976780)
(2.73322e+06 -290737 2.91901e-09 165317 9.12189e-11 869562)
(2.68861e+06 -173096 0 441869 0 939144)
(1.97614e+06 -237177 2.91901e-09 358657 -5.70118e-12 700439)
(3.7267e+06 -796840 -1.4595e-09 -413738 1.09463e-09 993888)
(5.82168e+06 -119018 1.82438e-10 706792 7.29751e-10 1.95854e+06)
(6.55541e+06 -451265 0 553296 7.29751e-10 2.13261e+06)
(7.29579e+06 70100 9.12189e-11 820348 0 2.43484e+06)
(1.10691e+06 -598578 2.91901e-09 -1.45227e+06 -9.12189e-11 -103606)
(3.51272e+06 -482378 -3.64876e-09 -23895.7 1.82438e-10 1.04665e+06)
(1.86818e+06 -90357.5 -1.4595e-09 378775 5.70118e-12 674085)
(3.38039e+06 -428947 0 -31620.6 9.12189e-11 1.00463e+06)
(2.89628e+06 -279380 7.29751e-09 141787 -4.56095e-10 911419)
(2.58815e+06 -99643.2 2.91901e-09 547892 2.28047e-11 940812)
(2.79728e+06 -153466 0 18706 -9.12189e-11 844796)
(2.05168e+06 -902975 -1.09463e-09 -124958 1.09463e-09 578018)
(3.7664e+06 -1.3524e+06 3.64876e-10 230686 -3.64876e-10 1.19913e+06)
(1.08072e+06 -607443 -1.4595e-09 -487545 3.64876e-10 177952)
(5.32908e+06 -1.19182e+06 3.64876e-10 180038 0 1.65273e+06)
(1.06511e+06 -427972 -2.91901e-09 -7889.92 2.28047e-11 317167)
(145522 -28604 7.29751e-10 -1.34444e+06 2.73657e-10 -359676)
(2.27569e+06 -277795 -1.4595e-09 367746 6.84142e-11 793030)
(3.26001e+06 -312795 -7.29751e-10 -36875.9 1.82438e-10 966940)
(3.13105e+06 -225436 0 20650 -1.82438e-10 945509)
(2.6855e+06 -58590.9 -1.4595e-09 16926 -1.82438e-10 810728)
(3.96781e+06 407819 0 85186.7 -2.18925e-09 1.2159e+06)
(2.01248e+06 -78668.9 0 417745 1.71035e-11 729066)
(1.79982e+06 -90592.5 -4.37851e-09 369195 1.14024e-11 650706)
(3.48183e+06 -482686 -1.4595e-09 -84658.3 3.64876e-10 1.01915e+06)
(3.77143e+06 -361705 -7.29751e-10 -366226 3.64876e-10 1.02156e+06)
(2.32647e+06 -301366 -1.4595e-09 422591 -4.56095e-11 824718)
(1.16757e+06 -409781 -1.4595e-09 -44607.1 0 336888)
(2.7958e+06 -249658 7.29751e-09 168157 -4.56095e-10 889187)
(2.70449e+06 -218955 1.4595e-09 353790 -9.12189e-11 917484)
(3.56845e+06 510462 1.82438e-10 201786 -2.18925e-09 1.13107e+06)
(3.99251e+06 -162704 3.64876e-10 -748986 0 973058)
(3.48118e+06 -236171 0 63974.2 0 1.06355e+06)
(2.64312e+06 -279440 0 278807 1.82438e-10 876577)
(-139845 297015 -7.29751e-10 -2.23817e+06 1.59633e-10 -713404)
(4.04766e+06 -107692 -7.29751e-10 -349277 -7.29751e-10 1.10951e+06)
(4.78076e+06 -291830 3.64876e-10 -113123 -7.29751e-10 1.40029e+06)
(2.47089e+06 -849662 -7.29751e-10 -839622 0 489381)
(3.53037e+06 -432412 -1.4595e-09 -203817 3.64876e-10 997966)
(419805 -689711 1.4595e-09 -1.1467e+06 4.56095e-11 -218068)
(70390.5 -366473 2.91901e-09 -2.03151e+06 -9.12189e-11 -588335)
(5.02264e+06 -16346.1 0 -336995 3.64876e-10 1.40569e+06)
(3.69835e+06 -343199 2.91901e-09 -89893.7 -1.09463e-09 1.08254e+06)
(3.95501e+06 -291642 7.29751e-10 -218763 -7.29751e-10 1.12087e+06)
(4.02805e+06 -183001 1.4595e-09 -44158.4 5.47314e-10 1.19517e+06)
(4.31081e+06 -120136 1.4595e-09 -139526 0 1.25138e+06)
(4.36349e+06 -39335.6 7.29751e-10 -16035.6 0 1.30424e+06)
(2.94825e+06 -188198 5.83801e-09 79072.3 -3.64876e-10 908198)
(4.59821e+06 307970 2.73657e-10 372317 -7.29751e-10 1.49116e+06)
(5.44232e+06 196987 3.64876e-10 5281.3 -7.29751e-10 1.63428e+06)
(4.76518e+06 -8004.52 0 -34815.1 3.64876e-10 1.41911e+06)
(3.60459e+06 -617186 -7.29751e-10 -809211 5.47314e-10 838615)
(2.88415e+06 -113565 -1.4595e-09 65604 3.64876e-10 884925)
(4.73252e+06 61074.6 0 -54221.3 3.64876e-10 1.40349e+06)
(2.66125e+06 -29149.5 1.4595e-09 788703 1.14024e-11 1.03499e+06)
(4.45111e+06 533909 3.64876e-10 -121110 0 1.299e+06)
(4.22222e+06 322982 3.64876e-10 -213628 -7.29751e-10 1.20258e+06)
(1.68714e+06 -950864 1.4595e-09 -707921 0 293765)
(4.30537e+06 186819 -7.29751e-10 1571.5 3.64876e-10 1.29208e+06)
(1.12106e+06 -714217 2.18925e-09 -986056 1.36828e-10 40502.5)
(4.43607e+06 23918 -7.29751e-10 -14154.5 3.64876e-10 1.32658e+06)
(5.42863e+06 -72593.6 -1.82438e-10 828727 0 1.87721e+06)
(5.87308e+06 205859 9.12189e-11 744508 0 1.98527e+06)
(4.20427e+06 221426 1.4595e-09 -421205 -3.64876e-10 1.13492e+06)
(3.85761e+06 -273399 -2.18925e-09 3489.75 5.47314e-10 1.15833e+06)
(3.83441e+06 -114690 0 -12844.7 1.82438e-10 1.14647e+06)
(4.04418e+06 248912 -3.64876e-10 8694.13 1.09463e-09 1.21586e+06)
(4.21614e+06 -81268.8 0 -16419.2 -5.47314e-10 1.25992e+06)
(3.34421e+06 189135 0 7613.8 -7.29751e-10 1.00555e+06)
(4.19124e+06 -211133 1.4595e-09 -75439.5 1.82438e-10 1.23474e+06)
(3.58102e+06 263257 -1.82438e-10 -47438 0 1.06008e+06)
(4.33964e+06 258513 1.82438e-09 -73991.4 -1.09463e-09 1.27969e+06)
(3.75323e+06 286805 3.64876e-10 11879.8 3.64876e-10 1.12953e+06)
(4.52767e+06 139559 0 -63623.2 -3.64876e-10 1.33922e+06)
(4.22575e+06 -104694 7.29751e-10 7647.63 -3.64876e-10 1.27002e+06)
(4.66194e+06 -57308.3 -1.4595e-09 -15274.2 1.82438e-10 1.394e+06)
(4.13973e+06 210144 0 -59868.7 3.64876e-10 1.22396e+06)
(4.46921e+06 -88011.1 -7.29751e-10 -1276.1 7.29751e-10 1.34038e+06)
(4.19302e+06 92713.8 1.4595e-09 -216631 -1.09463e-09 1.19292e+06)
(3.16689e+06 -469959 7.29751e-10 123477 -1.82438e-10 987110)
(2.91544e+06 -550692 -7.29751e-10 2739.59 1.82438e-10 875453)
(4.42647e+06 105176 0 -8067.7 -3.64876e-10 1.32552e+06)
(4.59483e+06 220707 0 597009 7.29751e-10 1.55755e+06)
(2.36893e+06 -767742 7.29751e-10 -198153 -4.56095e-11 651232)
(4.03323e+06 -105602 7.29751e-10 -15864.1 -1.82438e-10 1.20521e+06)
(3.81844e+06 -370553 2.18925e-09 -110514 -9.12189e-11 1.11238e+06)
(3.04751e+06 263454 -1.82438e-10 31868.5 -1.4595e-09 923812)
(1.57709e+06 -100809 -1.4595e-09 311764 1.14024e-11 566656)
(3.44433e+06 -456292 1.4595e-09 -836559 1.82438e-10 782331)
(1.05048e+06 -122797 -2.18925e-09 65396.4 1.71035e-11 334763)
(3.84943e+06 -247102 7.29751e-10 -30227.4 3.64876e-10 1.14576e+06)
(2.48197e+06 190918 9.12189e-11 91900.6 -7.29751e-10 772160)
(2.69414e+06 -148482 -2.91901e-09 243264 3.64876e-10 881220)
(1.11508e+06 -151054 -7.29751e-10 129409 5.70118e-12 373346)
(1.36845e+06 -113814 -1.4595e-09 238766 0 482165)
(2.0751e+06 -848450 2.18925e-09 -263824 -9.12189e-11 543384)
(2.13622e+06 -201256 4.37851e-09 375089 -2.28047e-11 753394)
(2.41706e+06 -157117 1.4595e-09 458015 -2.28047e-11 862523)
(762488 -176524 -1.4595e-09 -82536.6 0 203985)
(2.91903e+06 -482835 1.4595e-09 33206.2 0 885672)
(2.71215e+06 -199312 2.91901e-09 129845 -1.82438e-10 852598)
(2.40288e+06 -145508 1.4595e-09 434334 2.28047e-11 851164)
(2.4207e+06 -47553.7 -1.4595e-09 471358 -1.14024e-11 867618)
(2.77531e+06 -164077 0 134430 0 872921)
(2.71791e+06 -124412 -5.83801e-09 154072 3.64876e-10 861594)
(1.4048e+06 -120262 1.4595e-09 255217 0 498004)
(2.05008e+06 -72918.2 -2.91901e-09 410856 1.14024e-11 738281)
(2.16067e+06 -68250 0 432128 1.14024e-11 777841)
(2.30722e+06 -183944 -1.4595e-09 440929 -2.28047e-11 824445)
(2.68569e+06 -111375 -1.4595e-09 91917.5 -9.12189e-11 833281)
(2.70155e+06 -228990 5.83801e-09 239534 -2.73657e-10 882324)
(2.68076e+06 -145555 1.4595e-09 179742 -9.12189e-11 858149)
(3.10159e+06 -452932 -2.18925e-09 -23139.9 2.73657e-10 923535)
(2.34174e+06 -54591.2 2.91901e-09 448445 0 837056)
(2.7272e+06 -205443 -4.37851e-09 196967 0 877249)
(2.6725e+06 -65436.8 1.4595e-09 236695 9.12189e-11 872760)
(2.68642e+06 -68034 0 304185 0 897181)
(2.70192e+06 -10506.6 1.4595e-09 10879 0 813839)
(2.66708e+06 -78011.5 0 332327 4.56095e-11 899823)
(2.67408e+06 -54119.7 -1.4595e-09 134969 0 842714)
(2.52004e+06 -33428.1 -1.4595e-09 509973 -1.14024e-11 909003)
(2.68235e+06 -56606.2 4.37851e-09 166085 -1.82438e-10 854531)
(2.66886e+06 -66323.8 4.37851e-09 444404 -9.12189e-11 933980)
(2.67926e+06 -65596.6 -1.4595e-09 486679 4.56095e-11 949782)
(2.60358e+06 -17941.3 -1.4595e-09 579713 2.28047e-11 954988)
(2.6136e+06 -34352.2 -1.4595e-09 612410 5.70118e-12 967803)
(2.69006e+06 -40901.8 1.4595e-09 58743.8 -2.73657e-10 824642)
(2.4568e+06 -47640.8 0 475884 -1.14024e-11 879806)
(2.20799e+06 -62480 -4.37851e-09 426283 0 790283)
(2.54779e+06 -41665.5 -1.4595e-09 528920 0 923014)
(3.96464e+06 -111846 -7.29751e-10 7899.02 1.82438e-10 1.19176e+06)
(1.65204e+06 -104192 -1.4595e-09 326603 5.70118e-12 593594)
(2.87654e+06 -54383.8 -1.4595e-09 24100.8 5.47314e-10 870191)
(3.03006e+06 -69987.3 1.4595e-09 7851.75 0 911372)
(3.21951e+06 -80376.8 -1.4595e-09 16907.7 0 970924)
(2.65408e+06 -59230.8 1.4595e-09 584738 0 971645)
(2.95015e+06 -70245 0 457.329 1.82438e-10 885184)
(3.08442e+06 -79430.2 0 -4022.3 3.64876e-10 924118)
(3.14239e+06 -409871 -7.29751e-10 133719 -9.12189e-11 982833)
(2.72063e+06 -140475 -4.37851e-09 48039 9.12189e-11 830601)
(2.29915e+06 -56521 1.4595e-09 447877 1.14024e-11 824108)
(3.36026e+06 -362810 1.4595e-09 105124 -6.38533e-10 1.03962e+06)
(2.28389e+06 -170681 -1.4595e-09 411368 0 808577)
(2.63246e+06 -252673 0 388943 -4.56095e-11 906420)
(2.54558e+06 -304168 1.4595e-09 367313 4.56095e-11 873867)
(3.07145e+06 -384403 0 -3289.46 2.73657e-10 920449)
(2.62576e+06 -192589 2.91901e-09 433210 -1.14024e-10 917691)
(2.69121e+06 -426417 2.91901e-09 265574 -2.28047e-10 887037)
(2.87338e+06 -324579 0 29153.8 9.12189e-11 870761)
(2.58544e+06 -224756 7.29751e-09 441469 -1.36828e-10 908072)
(2.72941e+06 -366320 0 273506 0 900876)
(2.64724e+06 -626576 -7.29751e-10 138020 -4.56095e-11 835579)
(2.5979e+06 -265252 -1.4595e-09 366615 0 889355)
(2.58369e+06 -292473 -1.4595e-09 376582 0 888081)
(2.67945e+06 -453032 0 154230 -1.82438e-10 850105)
(2.61993e+06 -365770 5.83801e-09 324210 -2.73657e-10 883243)
(2.59846e+06 -339547 0 301141 -4.56095e-11 869881)
(2.61361e+06 -400608 2.91901e-09 219263 0 849863)
(2.7769e+06 -480899 -1.4595e-09 89230.5 2.73657e-10 859840)
(2.39019e+06 -571503 -1.4595e-09 197141 9.12189e-11 776200)
(2.54893e+06 -410672 2.91901e-09 310753 -4.56095e-11 857905)
(2.89238e+06 -405024 -4.37851e-09 30812.9 0 876959)
(3.07026e+06 -340781 0 116193 0 955936)
(2.95704e+06 -423232 1.4595e-09 169615 -9.12189e-11 937996)
(2.71842e+06 -576703 -2.18925e-09 181854 4.56095e-11 870082)
(2.35426e+06 -474985 0 288925 4.56095e-11 792955)
(2.80626e+06 -468041 -1.4595e-09 213104 9.12189e-11 905811)
(2.57669e+06 -584043 0 130970 4.56095e-11 812298)
(2.6975e+06 -379566 -2.91901e-09 155294 1.82438e-10 855838)
(2.22358e+06 -511708 -5.83801e-09 270039 6.84142e-11 748087)
(2.5553e+06 -522580 1.4595e-09 244515 -1.36828e-10 839945)
(2.10969e+06 -389575 4.37851e-09 311019 -3.42071e-11 726211)
(2.64095e+06 -519301 1.4595e-09 150525 -4.56095e-11 837442)
(2.94299e+06 -349986 1.4595e-09 165213 -3.64876e-10 932462)
(2.45471e+06 -567267 -1.4595e-09 219745 9.12189e-11 802337)
(2.77064e+06 -523949 1.4595e-09 204115 -9.12189e-11 892426)
(2.82374e+06 -406451 0 221290 9.12189e-11 913510)
(2.33069e+06 -480197 -2.91901e-09 283546 6.84142e-11 784271)
(2.56808e+06 -464149 5.83801e-09 221937 0 837004)
(2.77593e+06 -404012 -1.4595e-09 86904.3 2.73657e-10 858850)
(2.48963e+06 -648407 -1.4595e-09 89920 1.82438e-10 773864)
(2.96566e+06 -485152 2.91901e-09 165685 -1.82438e-10 939404)
(2.44877e+06 -438568 1.4595e-09 287166 -4.56095e-11 820782)
(2.50704e+06 -328504 -1.4595e-09 369225 0 862879)
(2.63421e+06 -475988 0 255189 9.12189e-11 866818)
(2.95741e+06 -542877 -5.10826e-09 147677 4.56095e-10 931527)
(4.04707e+06 -88969.2 1.4595e-09 -183297 -1.82438e-10 1.15913e+06)
(2.71336e+06 -620903 3.64876e-09 39576.2 -1.82438e-10 825880)
(2.75451e+06 -552341 1.4595e-09 74671.6 -2.73657e-10 848754)
(1.64993e+06 -807616 -2.91901e-09 -213004 1.59633e-10 431077)
(2.49687e+06 -516968 2.91901e-09 218193 4.56095e-11 814518)
(2.45016e+06 -446404 -2.91901e-09 293295 9.12189e-11 823036)
(2.88361e+06 -673943 -2.18925e-09 -115915 -9.12189e-11 830308)
(3.6828e+06 -285870 1.4595e-09 -20199.2 -3.64876e-10 1.09878e+06)
(3.18504e+06 -624003 -1.4595e-09 -171514 1.82438e-10 904058)
(2.5386e+06 -390539 -2.91901e-09 293403 1.36828e-10 849600)
(2.84428e+06 -720183 0 -247479 9.12189e-11 779041)
(2.1797e+06 -507349 1.4595e-09 250226 -2.28047e-11 728978)
(3.85501e+06 -237577 -7.29751e-10 -152366 0 1.11079e+06)
(2.93374e+06 -596777 -2.18925e-09 110884 0 913388)
(2.00569e+06 -690658 7.29751e-10 -31016.3 -9.12189e-11 592401)
(3.17945e+06 -529841 -2.18925e-09 87300.5 9.12189e-11 980025)
(2.23915e+06 -778074 0 -95708.2 -4.56095e-11 643033)
(4.02636e+06 -259821 2.91901e-09 -35953.4 0 1.19712e+06)
(3.20363e+06 -568727 0 43056.9 2.73657e-10 974005)
(2.86681e+06 -676110 -3.64876e-09 -46963.9 9.12189e-11 845953)
(2.56139e+06 -671823 -2.18925e-09 68554.1 4.56095e-11 788984)
(2.65372e+06 -686795 0 -16426.4 1.82438e-10 791188)
(2.90423e+06 -617932 0 -37503 -1.82438e-10 860020)
(2.38011e+06 -711504 -7.29751e-10 22352.6 -9.12189e-11 720740)
(4.06501e+06 -154788 -1.4595e-09 -301043 7.29751e-10 1.12919e+06)
(1.77944e+06 -555979 -7.29751e-10 125762 -2.28047e-11 571560)
(4.14986e+06 16617.6 -7.29751e-10 -376730 0 1.13194e+06)
(2.57477e+06 -749304 -1.4595e-09 -115837 1.36828e-10 737679)
(2.90709e+06 -639686 7.29751e-10 53663 -1.82438e-10 888226)
(2.46619e+06 -716932 3.64876e-09 -45150.2 -9.12189e-11 726311)
(4.41173e+06 512366 -1.09463e-09 -180888 1.4595e-09 1.26925e+06)
(2.17902e+06 -649482 -7.29751e-10 95872.2 1.36828e-10 682468)
(2.32771e+06 -606901 2.18925e-09 166737 0 748334)
(2.72241e+06 -823950 7.29751e-10 -1.00881e+06 9.12189e-11 514082)
(3.23294e+06 -588510 2.18925e-09 -24111.9 -3.64876e-10 962649)
(2.09935e+06 -677431 3.64876e-09 82234.6 -1.59633e-10 654475)
(1.89241e+06 -742691 -7.29751e-10 -41263.3 -2.28047e-11 555343)
(2.04312e+06 -547290 1.4595e-09 223036 0 679846)
(2.26065e+06 -626413 2.18925e-09 152758 -9.12189e-11 724022)
(1.73673e+06 -509756 0 -347213 0 416854)
(1.83974e+06 -572138 -2.91901e-09 160002 4.56095e-11 599922)
(3.65042e+06 -111008 7.29751e-10 -2716.42 1.82438e-10 1.09431e+06)
(2.47767e+06 -809533 -2.91901e-09 -275869 1.82438e-10 660541)
(4.16863e+06 -67920.7 -7.29751e-10 -58477.5 3.64876e-10 1.23305e+06)
(6.71174e+06 -1.78864e+06 0 1.35016e+06 0 2.41857e+06)
(3.28074e+06 -560473 7.29751e-10 -685462 1.82438e-10 778582)
(3.76437e+06 -1.29599e+06 0 736211 7.29751e-10 1.35017e+06)
(2.82463e+06 -719404 -7.29751e-10 -197915 -9.12189e-11 788013)
(1.99128e+06 -528107 -2.18925e-09 189867 6.84142e-11 654343)
(2.78491e+06 -754710 -2.18925e-09 -638906 2.73657e-10 643803)
(3.45155e+06 -596711 -1.4595e-09 -747145 1.82438e-10 811321)
(2.79192e+06 -764997 -3.64876e-09 -418353 1.82438e-10 712070)
(3.24951e+06 -626175 7.29751e-10 -343690 0 871745)
(3.37814e+06 -609218 7.29751e-10 -535033 -4.56095e-10 852932)
(4.77327e+06 391041 0 99241 -3.64876e-10 1.46175e+06)
(2.77273e+06 -794072 7.29751e-10 -651772 3.64876e-10 636288)
(422938 124481 0 -1.65926e+06 1.82438e-10 -370897)
(2.76328e+06 -816569 1.4595e-09 -879636 -7.29751e-10 565093)
(4.32774e+06 166046 -3.64876e-10 -240110 0 1.22629e+06)
(4.27913e+06 75843.7 -7.29751e-10 -68685.9 3.64876e-10 1.26313e+06)
(589219 -754662 0 -704888 -9.12189e-11 -34700.6)
(3.69068e+06 -104082 -1.4595e-09 15291.8 3.64876e-10 1.11179e+06)
(9276.86 418603 -7.29751e-10 -3.04178e+06 0 -909750)
(4.36229e+06 8169.5 -3.64876e-10 -186514 3.64876e-10 1.25273e+06)
(3.97777e+06 -321628 -1.4595e-09 -721050 0 977017)
(9.13083e+06 -1.63217e+06 -3.64876e-10 1.2347e+06 3.64876e-10 3.10966e+06)
(3.33755e+06 -513606 -1.4595e-09 -842423 0 748538)
(3.99992e+06 440505 -3.64876e-10 391975 2.91901e-09 1.31757e+06)
(2.3672e+06 -877113 -1.4595e-09 -479685 9.12189e-11 566254)
(2.25923e+06 -932976 0 -696589 -9.12189e-11 468793)
(4.4262e+06 623828 -5.47314e-10 105896 0 1.35963e+06)
(4.86248e+06 490640 -3.64876e-10 -4667.14 -3.64876e-10 1.45734e+06)
(2.81209e+06 -742808 2.91901e-09 -391106 -1.82438e-10 726295)
(2.60391e+06 -152828 0 525480 -2.28047e-11 938816)
(3.82645e+06 -350724 -1.4595e-09 -596184 -3.64876e-10 969079)
(4.47263e+06 142489 -7.29751e-10 -415145 -3.64876e-10 1.21725e+06)
(1.70808e+06 -855161 -7.29751e-10 -657019 9.12189e-11 315319)
(4.81422e+06 415463 3.64876e-10 -262518 7.29751e-10 1.36551e+06)
(2.1073e+06 -323073 1.4595e-09 334324 2.28047e-11 732488)
(3.15059e+06 -563974 -3.64876e-09 -93419.6 4.56095e-10 917150)
(1.79394e+06 -728086 2.18925e-09 -206385 4.56095e-11 476267)
(3.71707e+06 175622 0 329977 -7.29751e-10 1.21411e+06)
(2.74129e+06 -84407.5 -2.91901e-09 85339 2.73657e-10 847990)
(2.68809e+06 -21532.8 1.4595e-09 -4388.76 0 805110)
(2.52743e+06 -225900 1.4595e-09 458194 -4.56095e-11 895688)
(2.25115e+06 -802780 -1.4595e-09 -463122 2.28047e-10 536408)
(4.28232e+06 422748 -7.29751e-10 -73893.9 7.29751e-10 1.26253e+06)
(2.50708e+06 -122621 1.4595e-09 472120 -2.28047e-11 893760)
(3.46322e+06 -435201 -7.29751e-10 -75641.4 9.12189e-11 1.01628e+06)
(1.7109e+06 -346688 4.37851e-09 308330 -3.42071e-11 605768)
(3.66662e+06 -449442 7.29751e-10 -465301 0 960396)
(2.81503e+06 -337712 -2.91901e-09 204530 3.64876e-10 905868)
(1.96519e+06 -249525 -1.4595e-09 376475 2.28047e-11 702500)
(4.44294e+06 -52020.5 -1.4595e-09 -592745 0 1.15506e+06)
(4.2773e+06 256850 0 -327507 -7.29751e-10 1.18494e+06)
(2.18589e+06 -963650 -1.4595e-09 -905761 0 384037)
(2.42315e+06 -345480 0 347518 -1.14024e-10 831201)
(1.47684e+06 -624473 -1.4595e-09 11110.5 2.28047e-11 446386)
(2.64587e+06 -120948 5.83801e-09 551646 -1.36828e-10 959254)
(2.0397e+06 -407338 0 329987 -6.84142e-11 710906)
(4.17961e+06 594868 -5.47314e-10 -32628.1 -7.29751e-10 1.24409e+06)
(3.56495e+06 -489426 7.29751e-10 -272116 -5.47314e-10 987852)
(2.65342e+06 -57299.8 0 609716 -1.14024e-11 978940)
(1.86594e+06 -933457 0 -474150 0 417538)
(2.72316e+06 -300931 1.4595e-09 294488 9.12189e-11 905294)
(2.67727e+06 -45654.8 -1.4595e-09 578624 2.28047e-11 976767)
(4.24132e+06 -4970.18 0 409431 -7.29751e-10 1.39523e+06)
(2.94488e+06 -202777 0 5503.04 1.82438e-10 885116)
(2.67318e+06 -32791.9 0 50197.8 9.12189e-11 817015)
(7.74273e+06 130413 1.82438e-10 453111 -7.29751e-10 2.45875e+06)
(1.13161e+07 -901175 1.82438e-10 1.33402e+06 -7.29751e-10 3.79504e+06)
(3.26685e+06 -90303.2 2.18925e-09 -5909.37 -5.47314e-10 978281)
(2.69613e+06 -164387 -1.4595e-09 381678 1.82438e-10 923343)
(2.67075e+06 -219967 4.37851e-09 256685 0 878230)
(2.86753e+06 -184199 2.91901e-09 116578 9.12189e-11 895232)
(3.39871e+06 -113215 0 -12901.3 0 1.01574e+06)
(5.39021e+06 148625 -7.29751e-10 378643 1.4595e-09 1.73066e+06)
(3.12286e+06 -513698 0 -33310.3 2.73657e-10 926864)
(2.49774e+06 -126970 -1.4595e-09 481119 2.28047e-11 893656)
(3.72345e+06 -389554 -2.18925e-09 -2478.1 1.82438e-10 1.11629e+06)
(4.06927e+06 599751 -5.47314e-10 112968 7.29751e-10 1.25467e+06)
(2.67501e+06 -139308 -1.4595e-09 475243 9.12189e-11 945076)
(2.7728e+06 -28355.1 -1.4595e-09 3210.15 0 832803)
(2.79701e+06 -44200.4 0 -9257.18 -3.64876e-10 836325)
(4.01688e+06 449481 1.09463e-09 -100533 -1.09463e-09 1.1749e+06)
(1.80212e+06 -271332 2.91901e-09 344477 2.28047e-11 643979)
(3.60525e+06 -428543 -7.29751e-10 -515875 7.29751e-10 926813)
(2.63746e+06 -186386 -2.91901e-09 468407 9.12189e-11 931761)
(3.19789e+06 -615629 -7.29751e-10 -461919 5.47314e-10 820791)
(2.15221e+06 -4982.13 0 -972.845 7.29751e-10 645370)
(3.0012e+06 177031 0 60094.5 1.4595e-09 918390)
(2.67376e+06 -1645.7 0 844587 5.70118e-12 1.0555e+06)
(2.66148e+06 -30088.2 1.4595e-09 714646 -1.14024e-11 1.01284e+06)
(2.67398e+06 1750.61 -1.4595e-09 5299.91 1.82438e-10 803784)
(2.68722e+06 3127.34 -1.4595e-09 -14824.3 1.82438e-10 801719)
(2.26518e+06 -382110 -1.4595e-09 373817 0 791699)
(330223 -204688 -1.4595e-09 -425166 5.70118e-12 -28483.1)
(2.6459e+06 -282426 7.29751e-09 312804 -9.12189e-11 887611)
(2.63537e+06 -339099 4.37851e-09 214453 0 854946)
(3.8772e+06 -213106 -7.29751e-10 -713647 7.29751e-10 949067)
(3.02118e+06 -323486 4.37851e-09 -4894.34 0 904887)
(2.76717e+06 -324533 4.37851e-09 83833 -2.73657e-10 855301)
(2.61567e+06 -706514 0 -946162 9.12189e-11 500851)
(206562 -200259 -2.18925e-09 -1.53589e+06 6.84142e-11 -398800)
(2.6331e+06 -159147 0 414502 -9.12189e-11 914282)
(2.41949e+06 -361804 0 364941 -9.12189e-11 835330)
(1.5859e+06 -589983 -2.18925e-09 12589.4 5.70118e-11 479546)
(3.2513e+06 -223616 -2.91901e-09 26721 1.82438e-10 983406)
(3.03108e+06 -274122 0 112841 -1.82438e-10 943176)
(1.93161e+06 -402690 -1.4595e-09 287561 -1.14024e-11 665750)
(2.56109e+06 -233775 -1.4595e-09 422218 -4.56095e-11 894993)
(2.94213e+06 -180258 1.4595e-09 42837 -5.47314e-10 895490)
(6.74114e+06 -896557 9.12189e-11 -264975 -7.29751e-10 1.94285e+06)
(2.66291e+06 -41451.6 2.91901e-09 707610 -2.28047e-11 1.01116e+06)
(889575 -427624 3.64876e-09 -332685 -5.70118e-11 167067)
(4.13301e+06 486347 5.47314e-10 -18923.5 -1.4595e-09 1.23423e+06)
(5.57996e+06 239575 1.82438e-10 376345 -1.4595e-09 1.78689e+06)
(133511 -568479 4.37851e-09 -1.03677e+06 -1.14024e-10 -270977)
(667750 -421638 1.4595e-09 -694659 -1.14024e-11 -8072.8)
(2.67645e+06 -36691.8 -2.91901e-09 643193 0 995894)
(3.52762e+06 -517447 -5.83801e-09 -291638 5.47314e-10 970794)
(3.71577e+06 -292516 -1.4595e-09 -689616 7.29751e-10 907846)
(2.82237e+06 -248265 4.37851e-09 16512.2 -5.47314e-10 851665)
(482973 -184923 7.29751e-10 -679920 5.70118e-12 -59084.1)
(2.65735e+06 -28171.7 0 697935 -5.70118e-12 1.00659e+06)
(773634 -469996 2.91901e-09 -231329 0 162691)
(2.31864e+06 -383727 0 338329 6.84142e-11 797092)
(2.55403e+06 -179637 -2.91901e-09 483676 2.28047e-11 911312)
(3.45829e+06 -97115.9 1.4595e-09 22629.5 0 1.04428e+06)
(4.24913e+06 524023 0 -36645.1 -1.4595e-09 1.26374e+06)
(2.66681e+06 -164521 0 270529 9.12189e-11 881203)
(4.30297e+06 291512 7.29751e-10 -525241 0 1.13332e+06)
(1.76341e+06 -267672 1.4595e-09 330477 1.14024e-11 628166)
(3.37146e+06 -435888 -2.91901e-09 73984.8 0 1.03363e+06)
(4.74346e+06 461883 -1.82438e-10 242641 1.4595e-09 1.49583e+06)
(4.29312e+06 -358982 0 -596172 -3.64876e-10 1.10908e+06)
(2.47828e+06 -252504 0 406539 -2.28047e-11 865446)
(1.60236e+06 -407918 1.4595e-09 208359 0 543215)
(2.76552e+06 -34781.7 1.4595e-09 22440.6 -1.82438e-10 836389)
(1.22827e+06 -680337 -7.29751e-10 -150122 -1.14024e-11 323444)
(3.16999e+06 -253566 -7.29751e-10 -43924.7 0 937820)
(3.61126e+06 -291310 -1.4595e-09 -9487.68 0 1.08053e+06)
(7.13228e+06 -417178 -9.12189e-11 1.02451e+06 1.4595e-09 2.44703e+06)
(3.54254e+06 -287422 -7.29751e-10 81569 0 1.08723e+06)
(1.84372e+06 -420912 -1.4595e-09 308367 -1.14024e-11 645627)
(4.03322e+06 -21673.8 -7.29751e-10 -604799 0 1.02853e+06)
(1.54944e+06 -313027 1.4595e-09 247199 1.14024e-11 538991)
(3.56516e+06 -282220 7.29751e-10 253.159 -1.82438e-10 1.06962e+06)
(2.62584e+06 -206522 -2.91901e-09 356139 1.36828e-10 894595)
(3.28873e+06 -52361.3 4.56095e-11 165745 0 1.03634e+06)
(2.67383e+06 -15121.5 1.4595e-09 7097.68 0 804277)
(4.74895e+06 470652 -3.64876e-10 230235 7.29751e-10 1.49376e+06)
(4.4271e+06 237224 -1.09463e-09 -394729 -7.29751e-10 1.20971e+06)
(3.15085e+06 -630440 -2.18925e-09 -313608 -3.64876e-10 851174)
(3.68174e+06 483378 0 3465.59 -7.29751e-10 1.10556e+06)
(1.46355e+06 -867436 -2.91901e-09 -386465 4.56095e-11 323127)
(3.14845e+06 159896 1.36828e-10 127465 -1.4595e-09 982774)
(2.65761e+06 -1106.62 -1.4595e-09 681281 0 1.00167e+06)
(2.69511e+06 -6806.46 -2.91901e-09 2410.58 -1.82438e-10 809257)
(4.19339e+06 -107949 7.29751e-10 -587648 -5.47314e-10 1.08172e+06)
(2.2658e+06 -382178 2.91901e-09 319501 -4.56095e-11 775591)
(4.13746e+06 42855.5 -2.18925e-09 -446892 7.29751e-10 1.10717e+06)
(-191781 -104108 0 -2.71008e+06 4.56095e-11 -870559)
(2.62662e+06 -59439.8 -1.4595e-09 677484 -2.28047e-11 991230)
(687175 -123393 0 -224614 -1.14024e-11 138768)
(1.16252e+06 -807114 -1.4595e-09 -755534 -9.12189e-11 122095)
(2.67218e+06 -316722 5.83801e-09 331828 -9.12189e-11 901203)
(1.2593e+06 -708890 -7.29751e-10 -453932 -4.56095e-11 241611)
(2.06473e+06 -773630 0 -735685 0 398714)
(3.25287e+06 -321401 1.4595e-09 94171 0 1.00411e+06)
(-108057 352779 -1.4595e-09 -4.18002e+06 9.12189e-11 -1.28642e+06)
(3.20785e+06 336268 -1.82438e-10 173012 7.29751e-10 1.01426e+06)
(2.73067e+06 -42348.3 0 39615.2 -1.82438e-10 831086)
(2.46447e+06 -208110 4.37851e-09 419631 0 865231)
(1.20026e+06 -817818 0 -479347 4.56095e-11 216275)
(368545 -490409 1.4595e-09 -564327 -3.42071e-11 -58734.8)
(4.22393e+06 589651 -2.73657e-10 282551 1.4595e-09 1.35194e+06)
(3.7153e+06 218098 9.12189e-11 130994 2.18925e-09 1.15389e+06)
(1.65083e+06 -968849 0 -920793 0 219011)
(4.25916e+06 147502 3.64876e-10 -583752 0 1.10262e+06)
(3.61705e+06 -366873 -1.4595e-09 50939.9 5.47314e-10 1.1004e+06)
(-293911 142241 -1.4595e-09 -1.82582e+06 6.84142e-11 -635920)
(883550 -730606 7.29751e-10 -429177 -2.28047e-11 136312)
(1.34173e+06 -613824 -7.29751e-10 -183270 -4.56095e-11 347538)
(3.29054e+06 -395189 2.91901e-09 -39058.2 -3.64876e-10 975445)
)
;

boundaryField
{
    back
    {
        type            empty;
    }
    front
    {
        type            empty;
    }
    down
    {
        type            symmetry;
    }
    right
    {
        type            calculated;
        value           nonuniform List<symmTensor> 10((2.66125e+06 -29149.5 1.4595e-09 788703 1.14024e-11 1.03499e+06) (2.68642e+06 -68034 0 304185 0 897181) (2.68235e+06 -56606.2 4.37851e-09 166085 -1.82438e-10 854531) (2.66886e+06 -66323.8 4.37851e-09 444404 -9.12189e-11 933980) (2.69006e+06 -40901.8 1.4595e-09 58743.8 -2.73657e-10 824642) (2.65408e+06 -59230.8 1.4595e-09 584738 0 971645) (2.68809e+06 -21532.8 1.4595e-09 -4388.76 0 805110) (2.67376e+06 -1645.7 0 844587 5.70118e-12 1.0555e+06) (2.68722e+06 3127.34 -1.4595e-09 -14824.3 1.82438e-10 801719) (2.66291e+06 -41451.6 2.91901e-09 707610 -2.28047e-11 1.01116e+06));
    }
    up
    {
        type            calculated;
        value           nonuniform List<symmTensor> 
20
(
(4.76518e+06 -8004.52 0 -34815.1 3.64876e-10 1.41911e+06)
(4.73252e+06 61074.6 0 -54221.3 3.64876e-10 1.40349e+06)
(3.58102e+06 263257 -1.82438e-10 -47438 0 1.06008e+06)
(4.52767e+06 139559 0 -63623.2 -3.64876e-10 1.33922e+06)
(4.22575e+06 -104694 7.29751e-10 7647.63 -3.64876e-10 1.27002e+06)
(4.66194e+06 -57308.3 -1.4595e-09 -15274.2 1.82438e-10 1.394e+06)
(4.13973e+06 210144 0 -59868.7 3.64876e-10 1.22396e+06)
(4.46921e+06 -88011.1 -7.29751e-10 -1276.1 7.29751e-10 1.34038e+06)
(3.04751e+06 263454 -1.82438e-10 31868.5 -1.4595e-09 923812)
(2.48197e+06 190918 9.12189e-11 91900.6 -7.29751e-10 772160)
(2.70192e+06 -10506.6 1.4595e-09 10879 0 813839)
(3.96464e+06 -111846 -7.29751e-10 7899.02 1.82438e-10 1.19176e+06)
(2.87654e+06 -54383.8 -1.4595e-09 24100.8 5.47314e-10 870191)
(3.03006e+06 -69987.3 1.4595e-09 7851.75 0 911372)
(3.21951e+06 -80376.8 -1.4595e-09 16907.7 0 970924)
(3.69068e+06 -104082 -1.4595e-09 15291.8 3.64876e-10 1.11179e+06)
(2.15221e+06 -4982.13 0 -972.845 7.29751e-10 645370)
(2.67398e+06 1750.61 -1.4595e-09 5299.91 1.82438e-10 803784)
(3.45829e+06 -97115.9 1.4595e-09 22629.5 0 1.04428e+06)
(2.76552e+06 -34781.7 1.4595e-09 22440.6 -1.82438e-10 836389)
)
;
    }
    left
    {
        type            symmetry;
    }
    hole
    {
        type            calculated;
        value           nonuniform List<symmTensor> 8((1.73673e+06 -509756 0 -347213 0 416854) (6.71174e+06 -1.78864e+06 0 1.35016e+06 0 2.41857e+06) (3.76437e+06 -1.29599e+06 0 736211 7.29751e-10 1.35017e+06) (422938 124481 0 -1.65926e+06 1.82438e-10 -370897) (9276.86 418603 -7.29751e-10 -3.04178e+06 0 -909750) (9.13083e+06 -1.63217e+06 -3.64876e-10 1.2347e+06 3.64876e-10 3.10966e+06) (1.13161e+07 -901175 1.82438e-10 1.33402e+06 -7.29751e-10 3.79504e+06) (-108057 352779 -1.4595e-09 -4.18002e+06 9.12189e-11 -1.28642e+06));
    }
}


// ************************************************************************* //
