/*--------------------------------*- C++ -*----------------------------------*\
| =========                 |                                                 |
| \\      /  F ield         | OpenFOAM: The Open Source CFD Toolbox           |
|  \\    /   O peration     | Version:  v2012                                 |
|   \\  /    A nd           | Website:  www.openfoam.com                      |
|    \\/     M anipulation  |                                                 |
\*---------------------------------------------------------------------------*/
FoamFile
{
    version     2.0;
    format      ascii;
    class       volSymmTensorField;
    location    "1";
    object      epsilon;
}
// * * * * * * * * * * * * * * * * * * * * * * * * * * * * * * * * * * * * * //

dimensions      [0 0 0 0 0 0 0];


internalField   nonuniform List<symmTensor> 
32768
(
(-1.05556e+07 4.26328e+06 -7.15716e+06 2.02901e+06 864868 -3.75875e+06)
(-2.50938e+07 1.02962e+07 -6.45854e+06 4.50135e+06 4.24554e+06 -1.41691e+06)
(-3.13932e+07 1.31889e+07 -6.62534e+06 5.01551e+06 5.43156e+06 -582637)
(-3.54142e+07 1.51921e+07 -6.73458e+06 5.02991e+06 5.91069e+06 -248357)
(-3.84887e+07 1.6817e+07 -6.73332e+06 4.85463e+06 6.1076e+06 -83048.2)
(-4.09764e+07 1.82e+07 -6.63774e+06 4.57645e+06 6.15868e+06 21363.6)
(-4.29813e+07 1.9377e+07 -6.46152e+06 4.22725e+06 6.11275e+06 101060)
(-4.45308e+07 2.0354e+07 -6.21404e+06 3.82282e+06 5.99025e+06 168595)
(-4.56294e+07 2.11281e+07 -5.90261e+06 3.37331e+06 5.80186e+06 228613)
(-4.62758e+07 2.16947e+07 -5.53345e+06 2.88631e+06 5.55454e+06 283072)
(-4.64688e+07 2.20504e+07 -5.1121e+06 2.36801e+06 5.25362e+06 333033)
(-4.62103e+07 2.21934e+07 -4.64342e+06 1.82359e+06 4.90337e+06 379314)
(-4.5505e+07 2.21237e+07 -4.1315e+06 1.25759e+06 4.50717e+06 422811)
(-4.43614e+07 2.18436e+07 -3.57938e+06 674152 4.06726e+06 464729)
(-4.27908e+07 2.13567e+07 -2.98855e+06 77524.1 3.58424e+06 506781)
(-4.08079e+07 2.06674e+07 -2.35837e+06 -526947 3.05639e+06 551280)
(-3.84291e+07 1.97799e+07 -1.6855e+06 -1.13079e+06 2.47879e+06 600944)
(-3.56724e+07 1.86957e+07 -963815 -1.71887e+06 1.84289e+06 658085)
(-3.25561e+07 1.74101e+07 -185738 -2.26409e+06 1.13743e+06 722749)
(-2.90974e+07 1.59095e+07 653959 -2.72159e+06 352473 789521)
(-2.53113e+07 1.41691e+07 1.55045e+06 -3.02681e+06 -511234 843249)
(-2.12109e+07 1.21586e+07 2.47663e+06 -3.10616e+06 -1.42599e+06 855035)
(-1.68126e+07 9.86108e+06 3.36618e+06 -2.9096e+06 -2.3159e+06 780103)
(-1.21607e+07 7.30855e+06 4.08849e+06 -2.45636e+06 -3.03947e+06 555058)
(-7.42171e+06 4.62468e+06 4.3942e+06 -1.82765e+06 -3.38805e+06 78609.8)
(-3.19461e+06 2.07784e+06 3.767e+06 -961064 -3.09289e+06 -843309)
(-1.70825e+06 541953 1.011e+06 624341 -1.73462e+06 -2.41767e+06)
(-3.68633e+06 729383 -1.7018e+06 2.22756e+06 634776 -1.79451e+06)
(-7.03473e+06 2.00219e+06 -3.13565e+06 3.03035e+06 2.12708e+06 -916288)
(-1.00616e+07 3.33582e+06 -3.33287e+06 3.39001e+06 2.64816e+06 43453.7)
(-1.1087e+07 3.87384e+06 -2.04769e+06 3.33927e+06 2.24512e+06 1.0037e+06)
(-5.419e+06 1.91116e+06 1.87434e+06 1.59668e+06 1.6335e+06 1.67032e+06)
(-4.30909e+06 1.26731e+07 -1.28592e+07 4.13202e+06 1.8418e+06 -7.81562e+06)
(-1.14994e+07 3.06238e+07 -6.2053e+06 9.44215e+06 9.12738e+06 -3.80161e+06)
(-1.60324e+07 3.89693e+07 -4.73166e+06 1.09113e+07 1.23774e+07 -1.8115e+06)
(-1.87446e+07 4.423e+07 -4.32448e+06 1.11728e+07 1.38698e+07 -852549)
(-2.05571e+07 4.81426e+07 -4.10256e+06 1.09585e+07 1.45449e+07 -342561)
(-2.18636e+07 5.12393e+07 -3.87433e+06 1.04906e+07 1.47793e+07 -27781.3)
(-2.28177e+07 5.36922e+07 -3.60471e+06 9.85029e+06 1.47316e+07 197188)
(-2.34801e+07 5.55556e+07 -3.29372e+06 9.07623e+06 1.44747e+07 376437)
(-2.38763e+07 5.68448e+07 -2.94796e+06 8.19212e+06 1.4047e+07 529123)
(-2.4019e+07 5.7564e+07 -2.57411e+06 7.21507e+06 1.34717e+07 664210)
(-2.39163e+07 5.77157e+07 -2.17779e+06 6.1585e+06 1.27648e+07 786481)
(-2.35751e+07 5.73048e+07 -1.76357e+06 5.03333e+06 1.19379e+07 899127)
(-2.30028e+07 5.63397e+07 -1.33506e+06 3.84874e+06 1.09996e+07 1.00503e+06)
(-2.22074e+07 5.48328e+07 -894900 2.61284e+06 9.95513e+06 1.10759e+06)
(-2.11983e+07 5.28005e+07 -444658 1.33404e+06 8.8053e+06 1.21126e+06)
(-1.99863e+07 5.02622e+07 15341.3 23666.4 7.54498e+06 1.32175e+06)
(-1.85841e+07 4.72398e+07 486008 -1.299e+06 6.16142e+06 1.4453e+06)
(-1.70064e+07 4.37559e+07 969048 -2.5983e+06 4.63392e+06 1.58641e+06)
(-1.527e+07 3.98325e+07 1.46578e+06 -3.81085e+06 2.93742e+06 1.7431e+06)
(-1.33922e+07 3.54895e+07 1.97515e+06 -4.83518e+06 1.05378e+06 1.89945e+06)
(-1.13869e+07 3.07447e+07 2.49143e+06 -5.53353e+06 -1.00523e+06 2.01732e+06)
(-9.25895e+06 2.56161e+07 3.00272e+06 -5.76376e+06 -3.16324e+06 2.03182e+06)
(-6.99974e+06 2.01299e+07 3.49015e+06 -5.45424e+06 -5.24361e+06 1.85604e+06)
(-4.60364e+06 1.43511e+07 3.92086e+06 -4.6897e+06 -6.95732e+06 1.38924e+06)
(-2.13116e+06 8.49397e+06 4.20846e+06 -3.66867e+06 -7.93358e+06 488931)
(210086 3.2887e+06 4.0765e+06 -2.32039e+06 -7.72311e+06 -1.16277e+06)
(2.53996e+06 998536 2.55164e+06 128138 -5.54761e+06 -4.03557e+06)
(2.60031e+06 2.97532e+06 -246040 3.27682e+06 -876713 -5.15905e+06)
(-23199.2 7.31528e+06 -1.89203e+06 5.52281e+06 3.55813e+06 -2.9551e+06)
(-2.3996e+06 1.13664e+07 -2.03414e+06 6.57008e+06 5.53942e+06 -564299)
(-3.11088e+06 1.27048e+07 -387605 6.55378e+06 5.24534e+06 1.77287e+06)
(-1.45016e+06 6.18191e+06 5.71454e+06 3.11771e+06 3.65872e+06 4.19973e+06)
(-485137 1.54723e+07 -1.49698e+07 3.47583e+06 2.18152e+06 -7.83887e+06)
(-2.10729e+06 3.84241e+07 -7.30614e+06 8.32714e+06 9.68446e+06 -5.06666e+06)
(-3.96448e+06 5.02399e+07 -4.51304e+06 1.01275e+07 1.4084e+07 -2.78183e+06)
(-5.04509e+06 5.75229e+07 -3.39537e+06 1.06027e+07 1.63705e+07 -1.41646e+06)
(-5.54624e+06 6.26593e+07 -2.79862e+06 1.05271e+07 1.74776e+07 -621642)
(-5.69479e+06 6.65171e+07 -2.34923e+06 1.01689e+07 1.79071e+07 -130872)
(-5.62432e+06 6.94209e+07 -1.93313e+06 9.62644e+06 1.79106e+07 201509)
(-5.4069e+06 7.14958e+07 -1.51916e+06 8.94396e+06 1.76166e+07 448861)
(-5.083e+06 7.27925e+07 -1.10167e+06 8.14716e+06 1.70943e+07 647670)
(-4.67761e+06 7.33354e+07 -682209 7.25385e+06 1.63845e+07 816549)
(-4.20789e+06 7.31409e+07 -263883 6.27736e+06 1.55127e+07 965636)
(-3.68679e+06 7.22246e+07 150221 5.22791e+06 1.44964e+07 1.10124e+06)
(-3.12476e+06 7.06047e+07 557407 4.11331e+06 1.33471e+07 1.2283e+06)
(-2.53072e+06 6.83028e+07 955394 2.93999e+06 1.2071e+07 1.35179e+06)
(-1.91275e+06 6.53446e+07 1.34224e+06 1.71473e+06 1.06683e+07 1.47757e+06)
(-1.27861e+06 6.17599e+07 1.71618e+06 448208 9.13193e+06 1.61243e+06)
(-636267 5.75825e+07 2.07523e+06 -838795 7.44594e+06 1.76285e+06)
(5912.05 5.28495e+07 2.41681e+06 -2.10604e+06 5.58713e+06 1.93171e+06)
(639738 4.76011e+07 2.73743e+06 -3.28311e+06 3.5315e+06 2.11243e+06)
(1.25927e+06 4.18781e+07 3.03352e+06 -4.26361e+06 1.26991e+06 2.28128e+06)
(1.86441e+06 3.57176e+07 3.30404e+06 -4.91647e+06 -1.16569e+06 2.39176e+06)
(2.46393e+06 2.91451e+07 3.55432e+06 -5.1295e+06 -3.67143e+06 2.37806e+06)
(3.0722e+06 2.21746e+07 3.7949e+06 -4.88601e+06 -6.05477e+06 2.17376e+06)
(3.69386e+06 1.48485e+07 4.01894e+06 -4.32873e+06 -8.05877e+06 1.73531e+06)
(4.31114e+06 7.40204e+06 4.13461e+06 -3.69152e+06 -9.42766e+06 1.02145e+06)
(4.93303e+06 658961 3.85282e+06 -3.00054e+06 -9.89577e+06 -157989)
(5.89181e+06 -3.37698e+06 2.59968e+06 -1.7937e+06 -8.88781e+06 -2.30104e+06)
(7.71865e+06 -1.98909e+06 365023 530074 -5.34657e+06 -5.45526e+06)
(7.21304e+06 4.3486e+06 -1.67727e+06 3.19055e+06 386176 -5.6731e+06)
(4.26829e+06 1.10752e+07 -1.7978e+06 4.86394e+06 4.70876e+06 -2.32211e+06)
(2.44335e+06 1.36042e+07 363748 5.1729e+06 5.73915e+06 975802)
(935703 6.6798e+06 6.35579e+06 2.48508e+06 3.81747e+06 5.14987e+06)
(1.59211e+06 1.50129e+07 -1.4329e+07 1.82731e+06 2.64357e+06 -7.11444e+06)
(3.40981e+06 3.80371e+07 -7.38891e+06 4.68959e+06 9.22926e+06 -5.26461e+06)
(3.78447e+06 5.07156e+07 -4.08254e+06 6.02798e+06 1.37976e+07 -3.14045e+06)
(4.23144e+06 5.8392e+07 -2.47734e+06 6.31183e+06 1.63571e+07 -1.65569e+06)
(4.95433e+06 6.34732e+07 -1.56518e+06 6.12962e+06 1.76164e+07 -719846)
(5.87889e+06 6.69862e+07 -925721 5.72768e+06 1.80798e+07 -130343)
(6.91072e+06 6.93719e+07 -398043 5.19882e+06 1.80409e+07 258617)
(7.97855e+06 7.08278e+07 76335.2 4.5825e+06 1.76635e+07 533339)
(9.03252e+06 7.14508e+07 517573 3.90017e+06 1.70403e+07 741827)
(1.00373e+07 7.12958e+07 932061 3.16607e+06 1.62256e+07 910499)
(1.09671e+07 7.04011e+07 1.32145e+06 2.39045e+06 1.52525e+07 1.05428e+06)
(1.18027e+07 6.87988e+07 1.68582e+06 1.58046e+06 1.41421e+07 1.18228e+06)
(1.25293e+07 6.65197e+07 2.02467e+06 740743 1.29074e+07 1.30105e+06)
(1.3136e+07 6.35956e+07 2.33719e+06 -125570 1.1555e+07 1.41639e+06)
(1.36144e+07 6.00604e+07 2.62211e+06 -1.01498e+06 1.00849e+07 1.53437e+06)
(1.39581e+07 5.59512e+07 2.87748e+06 -1.91995e+06 8.48966e+06 1.66115e+06)
(1.41629e+07 5.13088e+07 3.10041e+06 -2.82291e+06 6.7548e+06 1.80147e+06)
(1.42261e+07 4.61774e+07 3.28708e+06 -3.68837e+06 4.86131e+06 1.95511e+06)
(1.41476e+07 4.0604e+07 3.43387e+06 -4.45554e+06 2.79406e+06 2.11152e+06)
(1.39313e+07 3.46336e+07 3.54016e+06 -5.0379e+06 557594 2.24448e+06)
(1.35854e+07 2.83009e+07 3.6128e+06 -5.33907e+06 -1.80235e+06 2.31116e+06)
(1.31211e+07 2.162e+07 3.66878e+06 -5.29294e+06 -4.18049e+06 2.26208e+06)
(1.25456e+07 1.45867e+07 3.72685e+06 -4.92155e+06 -6.41465e+06 2.06404e+06)
(1.18577e+07 7.2325e+06 3.77386e+06 -4.37245e+06 -8.32497e+06 1.7211e+06)
(1.1066e+07 -210060 3.70065e+06 -3.86346e+06 -9.7723e+06 1.24915e+06)
(1.02771e+07 -6.9846e+06 3.23565e+06 -3.48736e+06 -1.06423e+07 548260)
(9.87019e+06 -1.1459e+07 2.01275e+06 -2.99427e+06 -1.06181e+07 -771140)
(1.03714e+07 -1.14125e+07 71890.2 -1.85e+06 -8.92049e+06 -3.10087e+06)
(1.18512e+07 -5.45725e+06 -1.84548e+06 149269 -4.58581e+06 -5.94664e+06)
(1.04688e+07 3.63214e+06 -2.1731e+06 2.02058e+06 1.16048e+06 -5.03984e+06)
(6.3713e+06 9.14409e+06 106658 2.76628e+06 4.31023e+06 -640156)
(2.29897e+06 5.04068e+06 5.07351e+06 1.41468e+06 3.03827e+06 4.66186e+06)
(2.41802e+06 1.29498e+07 -1.22588e+07 106667 2.98927e+06 -6.0852e+06)
(5.87467e+06 3.32927e+07 -6.50062e+06 727881 8.23489e+06 -4.81393e+06)
(7.67059e+06 4.49129e+07 -3.13771e+06 1.30732e+06 1.2362e+07 -2.99054e+06)
(9.21798e+06 5.16176e+07 -1.25504e+06 1.19568e+06 1.47597e+07 -1.56362e+06)
(1.08696e+07 5.5536e+07 -115436 746585 1.58941e+07 -608989)
(1.26329e+07 5.77294e+07 665102 165997 1.62157e+07 1152.38)
(1.44376e+07 5.87201e+07 1.2619e+06 -461871 1.60243e+07 393430)
(1.62118e+07 5.87767e+07 1.75127e+06 -1.1029e+06 1.55007e+07 655139)
(1.78975e+07 5.80496e+07 2.16655e+06 -1.74068e+06 1.47509e+07 839859)
(1.94502e+07 5.66337e+07 2.52312e+06 -2.36547e+06 1.38373e+07 979052)
(2.08363e+07 5.45968e+07 2.8289e+06 -2.97104e+06 1.27968e+07 1.0911e+06)
(2.20307e+07 5.19934e+07 3.08848e+06 -3.55386e+06 1.16517e+07 1.18713e+06)
(2.30145e+07 4.88709e+07 3.30481e+06 -4.11271e+06 1.04148e+07 1.27464e+06)
(2.37742e+07 4.52734e+07 3.47961e+06 -4.64779e+06 9.09183e+06 1.35957e+06)
(2.43002e+07 4.12437e+07 3.6135e+06 -5.15897e+06 7.68232e+06 1.44729e+06)
(2.45867e+07 3.6825e+07 3.70587e+06 -5.64251e+06 6.17969e+06 1.5425e+06)
(2.46311e+07 3.20617e+07 3.755e+06 -6.08619e+06 4.57243e+06 1.64761e+06)
(2.44343e+07 2.69997e+07 3.75868e+06 -6.4635e+06 2.84777e+06 1.75976e+06)
(2.40008e+07 2.1684e+07 3.71618e+06 -6.72964e+06 999844 1.86687e+06)
(2.33386e+07 1.61539e+07 3.6316e+06 -6.82406e+06 -957363 1.94505e+06)
(2.24575e+07 1.04332e+07 3.51748e+06 -6.68564e+06 -2.97566e+06 1.9612e+06)
(2.13652e+07 4.52293e+06 3.39411e+06 -6.28336e+06 -4.96536e+06 1.88468e+06)
(2.00627e+07 -1.58947e+06 3.27662e+06 -5.65517e+06 -6.80726e+06 1.70673e+06)
(1.85484e+07 -7.87356e+06 3.14196e+06 -4.92978e+06 -8.38964e+06 1.45322e+06)
(1.68475e+07 -1.41153e+07 2.88092e+06 -4.29143e+06 -9.65008e+06 1.1595e+06)
(1.50879e+07 -1.96849e+07 2.26882e+06 -3.86163e+06 -1.05601e+07 777298)
(1.36019e+07 -2.33226e+07 1.04607e+06 -3.53778e+06 -1.09823e+07 56340.5)
(1.28593e+07 -2.32992e+07 -768875 -2.93057e+06 -1.04508e+07 -1.39189e+06)
(1.30517e+07 -1.82747e+07 -2.63633e+06 -1.61266e+06 -8.17508e+06 -3.59772e+06)
(1.35732e+07 -8.79567e+06 -3.4546e+06 139931 -3.59041e+06 -5.56821e+06)
(1.03669e+07 424028 -1.59709e+06 1.16713e+06 1.1661e+06 -3.22282e+06)
(3.47857e+06 2.0159e+06 2.50969e+06 659872 1.75684e+06 2.85381e+06)
(2.52201e+06 1.03404e+07 -9.73205e+06 -1.21922e+06 3.01576e+06 -4.81229e+06)
(6.33969e+06 2.68924e+07 -5.15316e+06 -2.44324e+06 6.8035e+06 -3.9776e+06)
(8.64733e+06 3.64463e+07 -1.92977e+06 -2.64775e+06 1.01244e+07 -2.46933e+06)
(1.06933e+07 4.13558e+07 119671 -3.20875e+06 1.20353e+07 -1.19085e+06)
(1.28278e+07 4.33861e+07 1.43686e+06 -3.9835e+06 1.28094e+07 -305242)
(1.50648e+07 4.35871e+07 2.33088e+06 -4.80681e+06 1.28313e+07 257979)
(1.73303e+07 4.25528e+07 2.97267e+06 -5.60048e+06 1.23876e+07 603274)
(1.95436e+07 4.06273e+07 3.45025e+06 -6.33314e+06 1.16618e+07 813358)
(2.16369e+07 3.80239e+07 3.80945e+06 -6.99217e+06 1.07641e+07 943317)
(2.3558e+07 3.48855e+07 4.07569e+06 -7.57208e+06 9.75869e+06 1.02717e+06)
(2.52676e+07 3.13165e+07 4.26445e+06 -8.07069e+06 8.68206e+06 1.08521e+06)
(2.67364e+07 2.73986e+07 4.38606e+06 -8.48819e+06 7.55452e+06 1.12962e+06)
(2.79429e+07 2.31993e+07 4.4478e+06 -8.82661e+06 6.38628e+06 1.16806e+06)
(2.88721e+07 1.87769e+07 4.45479e+06 -9.08923e+06 5.18078e+06 1.20594e+06)
(2.95138e+07 1.41841e+07 4.41041e+06 -9.27903e+06 3.93615e+06 1.24749e+06)
(2.98623e+07 9.46985e+06 4.31647e+06 -9.39609e+06 2.64613e+06 1.29565e+06)
(2.99159e+07 4.68057e+06 4.17372e+06 -9.43407e+06 1.30178e+06 1.35084e+06)
(2.9677e+07 -139565 3.9829e+06 -9.37634e+06 -104745 1.40872e+06)
(2.91514e+07 -4.95101e+06 3.74693e+06 -9.19426e+06 -1.57348e+06 1.45788e+06)
(2.8347e+07 -9.724e+06 3.47368e+06 -8.85055e+06 -3.08745e+06 1.4793e+06)
(2.72719e+07 -1.44456e+07 3.17788e+06 -8.31144e+06 -4.60457e+06 1.4503e+06)
(2.59297e+07 -1.91234e+07 2.87797e+06 -7.5682e+06 -6.05689e+06 1.35484e+06)
(2.43183e+07 -2.37712e+07 2.58261e+06 -6.6623e+06 -7.36451e+06 1.19724e+06)
(2.24382e+07 -2.83579e+07 2.26379e+06 -5.69912e+06 -8.46441e+06 1.00843e+06)
(2.03216e+07 -3.26972e+07 1.82429e+06 -4.82768e+06 -9.33827e+06 825166)
(1.80873e+07 -3.62878e+07 1.08697e+06 -4.1699e+06 -1.00007e+07 627533)
(1.59972e+07 -3.81802e+07 -139610 -3.71e+06 -1.04099e+07 260922)
(1.4412e+07 -3.70673e+07 -1.87457e+06 -3.20355e+06 -1.03218e+07 -553740)
(1.35622e+07 -3.17836e+07 -3.77255e+06 -2.23872e+06 -9.20692e+06 -2.01778e+06)
(1.30915e+07 -2.22771e+07 -5.05456e+06 -628917 -6.48329e+06 -3.73277e+06)
(1.16094e+07 -1.08217e+07 -4.64555e+06 785102 -2.25111e+06 -4.23251e+06)
(5.18354e+06 -2.53726e+06 -1.67037e+06 621289 357585 93881.6)
(2.54902e+06 7.60519e+06 -7.15394e+06 -1.86687e+06 2.60377e+06 -3.34067e+06)
(6.06224e+06 2.02746e+07 -3.94283e+06 -4.19462e+06 5.07975e+06 -3.01728e+06)
(7.88868e+06 2.77457e+07 -875813 -5.12222e+06 7.44791e+06 -1.7132e+06)
(9.74452e+06 3.0706e+07 1.34028e+06 -6.13886e+06 8.64331e+06 -594395)
(1.18497e+07 3.06154e+07 2.83799e+06 -7.24739e+06 8.86064e+06 168431)
(1.41321e+07 2.85547e+07 3.84611e+06 -8.32487e+06 8.44202e+06 629062)
(1.64759e+07 2.52146e+07 4.52862e+06 -9.30221e+06 7.6567e+06 881185)
(1.87792e+07 2.10318e+07 4.98569e+06 -1.01517e+07 6.68062e+06 1.00357e+06)
(2.09632e+07 1.6293e+07 5.27749e+06 -1.0865e+07 5.61896e+06 1.05086e+06)
(2.29701e+07 1.11968e+07 5.44151e+06 -1.14412e+07 4.53067e+06 1.05752e+06)
(2.47585e+07 5.888e+06 5.5024e+06 -1.18827e+07 3.44663e+06 1.0441e+06)
(2.62988e+07 477926 5.47726e+06 -1.21937e+07 2.38131e+06 1.02254e+06)
(2.75703e+07 -4.9448e+06 5.37842e+06 -1.23798e+07 1.33966e+06 999792)
(2.85589e+07 -1.03071e+07 5.2149e+06 -1.24471e+07 320818 980129)
(2.92558e+07 -1.55469e+07 4.9932e+06 -1.24016e+07 -679902 966253)
(2.96567e+07 -2.06103e+07 4.71795e+06 -1.22471e+07 -1.66973e+06 959404)
(2.97611e+07 -2.545e+07 4.3927e+06 -1.19827e+07 -2.65665e+06 958535)
(2.9572e+07 -3.00248e+07 4.02122e+06 -1.16006e+07 -3.64621e+06 958920)
(2.9095e+07 -3.43017e+07 3.60936e+06 -1.1086e+07 -4.63668e+06 951013)
(2.83367e+07 -3.82597e+07 3.16703e+06 -1.04193e+07 -5.6132e+06 921030)
(2.73024e+07 -4.18944e+07 2.70861e+06 -9.58594e+06 -6.54398e+06 854858)
(2.59929e+07 -4.52171e+07 2.24879e+06 -8.59037e+06 -7.38258e+06 745795)
(2.44053e+07 -4.82402e+07 1.79082e+06 -7.47246e+06 -8.08006e+06 603380)
(2.25424e+07 -5.09331e+07 1.30646e+06 -6.31672e+06 -8.6056e+06 455665)
(2.04364e+07 -5.31401e+07 714915 -5.24147e+06 -8.96397e+06 333598)
(1.81869e+07 -5.44704e+07 -120269 -4.35672e+06 -9.187e+06 230430)
(1.5992e+07 -5.42122e+07 -1.34487e+06 -3.69129e+06 -9.27716e+06 51236.4)
(1.41157e+07 -5.13795e+07 -2.99991e+06 -3.11488e+06 -9.1111e+06 -395682)
(1.27388e+07 -4.50014e+07 -4.89338e+06 -2.3261e+06 -8.36298e+06 -1.30061e+06)
(1.16662e+07 -3.46855e+07 -6.53592e+06 -1.04057e+06 -6.56903e+06 -2.584e+06)
(9.80197e+06 -2.1312e+07 -7.30031e+06 487492 -3.57191e+06 -3.35604e+06)
(4.22866e+06 -7.03601e+06 -7.09777e+06 612214 -456605 -1.52542e+06)
(3.32613e+06 4.2974e+06 -4.16736e+06 -1.37462e+06 1.53022e+06 -1.68583e+06)
(6.44482e+06 1.33775e+07 -3.55803e+06 -3.82506e+06 3.34864e+06 -2.2498e+06)
(6.5275e+06 2.00236e+07 -405567 -5.70346e+06 4.7949e+06 -915977)
(7.50356e+06 2.16082e+07 2.08505e+06 -7.25973e+06 5.14708e+06 162729)
(9.10542e+06 1.96702e+07 3.82382e+06 -8.71225e+06 4.64228e+06 792032)
(1.10399e+07 1.54955e+07 4.97378e+06 -1.00286e+07 3.65291e+06 1.1054e+06)
(1.30959e+07 9.94674e+06 5.70695e+06 -1.11699e+07 2.44319e+06 1.22024e+06)
(1.51348e+07 3.5844e+06 6.14492e+06 -1.21212e+07 1.17493e+06 1.22019e+06)
(1.70663e+07 -3.21847e+06 6.36836e+06 -1.28828e+07 -61895 1.15972e+06)
(1.88318e+07 -1.02043e+07 6.43068e+06 -1.34608e+07 -1.22249e+06 1.07179e+06)
(2.03938e+07 -1.7188e+07 6.36789e+06 -1.38641e+07 -2.28848e+06 975096)
(2.17283e+07 -2.40312e+07 6.20501e+06 -1.4102e+07 -3.256e+06 879628)
(2.28206e+07 -3.06272e+07 5.95986e+06 -1.41842e+07 -4.12872e+06 790394)
(2.36622e+07 -3.68916e+07 5.64541e+06 -1.41202e+07 -4.91412e+06 709720)
(2.42489e+07 -4.27556e+07 5.27118e+06 -1.39191e+07 -5.62143e+06 638420)
(2.45802e+07 -4.81632e+07 4.84434e+06 -1.3588e+07 -6.26042e+06 576063)
(2.46584e+07 -5.30679e+07 4.37081e+06 -1.31309e+07 -6.83996e+06 520536)
(2.44882e+07 -5.7433e+07 3.85657e+06 -1.25474e+07 -7.36584e+06 467288)
(2.40755e+07 -6.12319e+07 3.30917e+06 -1.18326e+07 -7.83761e+06 408935)
(2.34257e+07 -6.44511e+07 2.73894e+06 -1.09801e+07 -8.24544e+06 336203)
(2.25423e+07 -6.70917e+07 2.15849e+06 -9.98748e+06 -8.56883e+06 241108)
(2.14251e+07 -6.91665e+07 1.57866e+06 -8.86675e+06 -8.77985e+06 122262)
(2.00715e+07 -7.06854e+07 999149 -7.65448e+06 -8.85249e+06 -9879.02)
(1.84859e+07 -7.16202e+07 394371 -6.41853e+06 -8.77657e+06 -132745)
(1.66973e+07 -7.18443e+07 -299896 -5.25289e+06 -8.56822e+06 -222844)
(1.47851e+07 -7.1056e+07 -1.18674e+06 -4.25331e+06 -8.26347e+06 -281708)
(1.28969e+07 -6.87197e+07 -2.37739e+06 -3.47156e+06 -7.88227e+06 -367808)
(1.12244e+07 -6.40843e+07 -3.92094e+06 -2.86006e+06 -7.36604e+06 -607293)
(9.90349e+06 -5.63389e+07 -5.72187e+06 -2.24604e+06 -6.52063e+06 -1.1434e+06)
(8.80579e+06 -4.49095e+07 -7.50676e+06 -1.4172e+06 -5.04218e+06 -1.96844e+06)
(7.18474e+06 -2.9716e+07 -9.00996e+06 -419715 -2.78222e+06 -2.56519e+06)
(3.04886e+06 -1.0602e+07 -1.09642e+07 42941.1 -601942 -1.24682e+06)
(2.51659e+06 1.54835e+06 -1.66008e+06 -486538 623829 -761120)
(5.44042e+06 7.26182e+06 -4.33295e+06 -1.82214e+06 2.06508e+06 -1.75886e+06)
(5.18964e+06 1.35759e+07 -1.38509e+06 -4.07844e+06 3.17779e+06 91617.8)
(4.75562e+06 1.50187e+07 1.95243e+06 -6.51344e+06 2.36862e+06 1.14727e+06)
(5.59051e+06 1.18927e+07 4.14643e+06 -8.38269e+06 893845 1.61598e+06)
(6.95801e+06 6.06449e+06 5.52492e+06 -9.92172e+06 -842108 1.71201e+06)
(8.49332e+06 -1.29243e+06 6.33779e+06 -1.11844e+07 -2.57808e+06 1.62749e+06)
(1.00085e+07 -9.44669e+06 6.76266e+06 -1.21911e+07 -4.18419e+06 1.46116e+06)
(1.14063e+07 -1.79283e+07 6.91786e+06 -1.296e+07 -5.60471e+06 1.26569e+06)
(1.26378e+07 -2.64243e+07 6.88118e+06 -1.35099e+07 -6.8241e+06 1.06823e+06)
(1.36798e+07 -3.47183e+07 6.70377e+06 -1.38588e+07 -7.84708e+06 881631)
(1.45233e+07 -4.26549e+07 6.41996e+06 -1.40235e+07 -8.68745e+06 710965)
(1.51669e+07 -5.01187e+07 6.05334e+06 -1.40191e+07 -9.36203e+06 557304)
(1.56133e+07 -5.70221e+07 5.62047e+06 -1.38596e+07 -9.88773e+06 419800)
(1.58679e+07 -6.32972e+07 5.13327e+06 -1.35573e+07 -1.02802e+07 296732)
(1.59377e+07 -6.88907e+07 4.60065e+06 -1.31227e+07 -1.05534e+07 185807)
(1.58306e+07 -7.37619e+07 4.02987e+06 -1.2564e+07 -1.07185e+07 83939.1)
(1.55548e+07 -7.78804e+07 3.4279e+06 -1.18861e+07 -1.07832e+07 -13130)
(1.51182e+07 -8.12276e+07 2.80262e+06 -1.10915e+07 -1.07502e+07 -110893)
(1.45271e+07 -8.37967e+07 2.16347e+06 -1.01821e+07 -1.06156e+07 -215188)
(1.37849e+07 -8.55931e+07 1.5206e+06 -9.16357e+06 -1.03692e+07 -329924)
(1.28917e+07 -8.66303e+07 881425 -8.05145e+06 -9.99798e+06 -453706)
(1.18466e+07 -8.69166e+07 243626 -6.87875e+06 -9.49239e+06 -576916)
(1.06549e+07 -8.64275e+07 -414489 -5.7007e+06 -8.85573e+06 -682283)
(9.34159e+06 -8.50619e+07 -1.14231e+06 -4.59317e+06 -8.11014e+06 -752500)
(7.96884e+06 -8.25886e+07 -2.0162e+06 -3.63954e+06 -7.29201e+06 -786256)
(6.64682e+06 -7.86022e+07 -3.11969e+06 -2.90428e+06 -6.42989e+06 -817137)
(5.5177e+06 -7.25241e+07 -4.50108e+06 -2.39833e+06 -5.50735e+06 -919477)
(4.69051e+06 -6.36741e+07 -6.12602e+06 -2.05693e+06 -4.43216e+06 -1.17481e+06)
(4.10843e+06 -5.13924e+07 -7.88072e+06 -1.76611e+06 -3.06837e+06 -1.55827e+06)
(3.34307e+06 -3.5017e+07 -9.80373e+06 -1.43145e+06 -1.46098e+06 -1.69488e+06)
(1.41514e+06 -1.28587e+07 -1.31925e+07 -622470 -571378 -520285)
(1.37913e+06 -285397 53711.1 -171297 652006 -1.13272e+06)
(3.25906e+06 3.31219e+06 -4.47057e+06 -273399 1.90224e+06 -1.60825e+06)
(2.81624e+06 9.59011e+06 -3.39231e+06 -1.30946e+06 3.10933e+06 368528)
(1.58785e+06 1.13976e+07 476369 -3.94863e+06 1.73945e+06 2.79987e+06)
(1.70894e+06 7.89963e+06 3.62591e+06 -6.50734e+06 -1.36456e+06 2.89904e+06)
(2.66315e+06 925780 5.40746e+06 -8.29435e+06 -4.23843e+06 2.58612e+06)
(3.73133e+06 -7.74345e+06 6.35592e+06 -9.63238e+06 -6.70633e+06 2.16329e+06)
(4.67846e+06 -1.71462e+07 6.77389e+06 -1.06301e+07 -8.73816e+06 1.74644e+06)
(5.42306e+06 -2.67174e+07 6.85305e+06 -1.13415e+07 -1.0363e+07 1.37077e+06)
(5.94972e+06 -3.61096e+07 6.712e+06 -1.18055e+07 -1.16276e+07 1.04354e+06)
(6.26983e+06 -4.50992e+07 6.42343e+06 -1.20542e+07 -1.25805e+07 761869)
(6.4039e+06 -5.35358e+07 6.0329e+06 -1.21146e+07 -1.32652e+07 519645)
(6.37453e+06 -6.13141e+07 5.56976e+06 -1.20094e+07 -1.37189e+07 310183)
(6.20378e+06 -6.83583e+07 5.05339e+06 -1.1758e+07 -1.3972e+07 127230)
(5.91221e+06 -7.46135e+07 4.49695e+06 -1.13767e+07 -1.40488e+07 -34681.5)
(5.51855e+06 -8.00393e+07 3.90979e+06 -1.08795e+07 -1.39687e+07 -180294)
(5.03961e+06 -8.46072e+07 3.29914e+06 -1.02778e+07 -1.37465e+07 -313918)
(4.4901e+06 -8.82989e+07 2.67155e+06 -9.58082e+06 -1.33925e+07 -439749)
(3.88228e+06 -9.11062e+07 2.03382e+06 -8.79586e+06 -1.29128e+07 -561902)
(3.2253e+06 -9.30307e+07 1.39346e+06 -7.93013e+06 -1.23092e+07 -683792)
(2.52471e+06 -9.40831e+07 757778 -6.99364e+06 -1.15801e+07 -806700)
(1.78278e+06 -9.42784e+07 131177 -6.00358e+06 -1.07235e+07 -927771)
(1.00087e+06 -9.36251e+07 -489823 -4.98942e+06 -9.74176e+06 -1.0385e+06)
(185491 -9.21038e+07 -1.12294e+06 -3.99694e+06 -8.64752e+06 -1.12546e+06)
(-641600 -8.9636e+07 -1.80522e+06 -3.08878e+06 -7.46736e+06 -1.17506e+06)
(-1.43117e+06 -8.60454e+07 -2.59215e+06 -2.3387e+06 -6.23936e+06 -1.18269e+06)
(-2.09872e+06 -8.10252e+07 -3.54528e+06 -1.81787e+06 -5.00136e+06 -1.16232e+06)
(-2.53258e+06 -7.41286e+07 -4.7079e+06 -1.57518e+06 -3.77341e+06 -1.14645e+06)
(-2.62905e+06 -6.47916e+07 -6.0829e+06 -1.61788e+06 -2.55111e+06 -1.15988e+06)
(-2.35349e+06 -5.23564e+07 -7.66165e+06 -1.8902e+06 -1.35182e+06 -1.14735e+06)
(-1.76881e+06 -3.5915e+07 -9.65832e+06 -2.14707e+06 -398405 -866291)
(-706355 -1.32768e+07 -1.34461e+07 -1.11105e+06 -556912 -2774.68)
(-165852 -836026 524772 -196306 1.21995e+06 -2.2436e+06)
(30992.8 1.87521e+06 -4.33193e+06 59018.2 2.89206e+06 -1.74855e+06)
(22058.4 8.65403e+06 -4.35245e+06 459054 4.17392e+06 -311944)
(-1.84803e+06 1.16965e+07 -1.6491e+06 -822630 3.38485e+06 3.06857e+06)
(-2.91322e+06 8.24363e+06 2.18057e+06 -3.42909e+06 -645038 5.1375e+06)
(-1.82037e+06 319589 4.6774e+06 -5.64112e+06 -5.52639e+06 4.08448e+06)
(-695341 -9.44565e+06 5.84415e+06 -7.03457e+06 -9.21343e+06 3.01175e+06)
(-5473.83 -1.96824e+07 6.25325e+06 -7.95759e+06 -1.18934e+07 2.15572e+06)
(230660 -2.97627e+07 6.2296e+06 -8.53711e+06 -1.37979e+07 1.50217e+06)
(85695.3 -3.93644e+07 5.95999e+06 -8.84374e+06 -1.51109e+07 1.00201e+06)
(-354494 -4.83109e+07 5.54819e+06 -8.92914e+06 -1.59678e+07 612527)
(-1.01361e+06 -5.64995e+07 5.05308e+06 -8.83393e+06 -1.6466e+07 302465)
(-1.82831e+06 -6.38672e+07 4.50912e+06 -8.59043e+06 -1.66755e+07 49537.1)
(-2.74666e+06 -7.03751e+07 3.93692e+06 -8.22461e+06 -1.66468e+07 -162218)
(-3.72596e+06 -7.59996e+07 3.34911e+06 -7.75756e+06 -1.64165e+07 -344331)
(-4.73091e+06 -8.07275e+07 2.75369e+06 -7.20663e+06 -1.60107e+07 -505192)
(-5.73237e+06 -8.45533e+07 2.15619e+06 -6.58623e+06 -1.54484e+07 -650983)
(-6.70651e+06 -8.74783e+07 1.56113e+06 -5.90838e+06 -1.47427e+07 -786313)
(-7.63444e+06 -8.95101e+07 972985 -5.18355e+06 -1.39028e+07 -914500)
(-8.50207e+06 -9.06625e+07 396396 -4.42198e+06 -1.29347e+07 -1.03735e+06)
(-9.2999e+06 -9.09542e+07 -164503 -3.63588e+06 -1.18433e+07 -1.15441e+06)
(-1.00221e+07 -9.04044e+07 -708118 -2.84258e+06 -1.06343e+07 -1.2619e+06)
(-1.06641e+07 -8.90246e+07 -1.23876e+06 -2.06824e+06 -9.31868e+06 -1.35199e+06)
(-1.12175e+07 -8.68026e+07 -1.77075e+06 -1.35141e+06 -7.91597e+06 -1.41329e+06)
(-1.16621e+07 -8.36798e+07 -2.33138e+06 -744964 -6.4575e+06 -1.43341e+06)
(-1.19571e+07 -7.95248e+07 -2.96006e+06 -314792 -4.9861e+06 -1.40336e+06)
(-1.20331e+07 -7.41091e+07 -3.70069e+06 -133882 -3.5524e+06 -1.3208e+06)
(-1.17922e+07 -6.70949e+07 -4.58818e+06 -270809 -2.21154e+06 -1.18632e+06)
(-1.11142e+07 -5.80384e+07 -5.63981e+06 -768341 -1.03281e+06 -985141)
(-9.84594e+06 -4.63861e+07 -6.88538e+06 -1.58238e+06 -146132 -657708)
(-7.64439e+06 -3.13623e+07 -8.52505e+06 -2.33315e+06 154984 -138307)
(-3.12337e+06 -1.14451e+07 -1.14171e+07 -1.30582e+06 -610466 84890.9)
(-2.0046e+06 248512 -613413 -331956 2.03176e+06 -3.73156e+06)
(-3.9953e+06 3.91067e+06 -4.24964e+06 -131271 4.43171e+06 -1.93293e+06)
(-3.93815e+06 1.0835e+07 -4.52978e+06 815524 5.84811e+06 -781395)
(-4.60732e+06 1.54163e+07 -2.59536e+06 981683 5.76581e+06 1.60816e+06)
(-6.88409e+06 1.34313e+07 572188 -412528 2.69134e+06 5.43901e+06)
(-7.22754e+06 4.81035e+06 3.61329e+06 -2.55193e+06 -3.43389e+06 6.65841e+06)
(-5.10648e+06 -6.54557e+06 5.08474e+06 -4.06669e+06 -9.28303e+06 4.56826e+06)
(-3.86419e+06 -1.77587e+07 5.45318e+06 -4.86346e+06 -1.31355e+07 2.89034e+06)
(-3.62315e+06 -2.80927e+07 5.26167e+06 -5.24332e+06 -1.55388e+07 1.74567e+06)
(-4.13393e+06 -3.73813e+07 4.80617e+06 -5.32582e+06 -1.69614e+07 972650)
(-5.1573e+06 -4.56096e+07 4.23273e+06 -5.18694e+06 -1.77138e+07 437681)
(-6.51248e+06 -5.28028e+07 3.61431e+06 -4.88345e+06 -1.79948e+07 54297.1)
(-8.0674e+06 -5.89956e+07 2.98794e+06 -4.45876e+06 -1.79318e+07 -231521)
(-9.72446e+06 -6.42238e+07 2.37237e+06 -3.94624e+06 -1.76074e+07 -453888)
(-1.14099e+07 -6.8522e+07 1.77679e+06 -3.37183e+06 -1.70757e+07 -634746)
(-1.30667e+07 -7.19231e+07 1.20536e+06 -2.7561e+06 -1.63722e+07 -788350)
(-1.46503e+07 -7.44589e+07 659845 -2.11571e+06 -1.55204e+07 -923905)
(-1.61259e+07 -7.61602e+07 141092 -1.46458e+06 -1.45359e+07 -1.04714e+06)
(-1.74663e+07 -7.70579e+07 -350079 -814848 -1.343e+07 -1.16115e+06)
(-1.86514e+07 -7.71834e+07 -812675 -178196 -1.22113e+07 -1.26673e+06)
(-1.96666e+07 -7.65675e+07 -1.24607e+06 432473 -1.08886e+07 -1.36218e+06)
(-2.05017e+07 -7.52379e+07 -1.65143e+06 1.00065e+06 -9.47308e+06 -1.44293e+06)
(-2.11483e+07 -7.32124e+07 -2.03393e+06 1.50329e+06 -7.98129e+06 -1.5011e+06)
(-2.15954e+07 -7.04882e+07 -2.40524e+06 1.90766e+06 -6.43849e+06 -1.52575e+06)
(-2.18229e+07 -6.70265e+07 -2.78515e+06 2.16865e+06 -4.88142e+06 -1.50377e+06)
(-2.17938e+07 -6.27351e+07 -3.20052e+06 2.22778e+06 -3.36038e+06 -1.42106e+06)
(-2.14453e+07 -5.74526e+07 -3.68009e+06 2.01515e+06 -1.94146e+06 -1.26228e+06)
(-2.06797e+07 -5.09426e+07 -4.24553e+06 1.4582e+06 -712201 -1.00641e+06)
(-1.93439e+07 -4.29047e+07 -4.90325e+06 508737 202210 -619710)
(-1.71507e+07 -3.30118e+07 -5.64564e+06 -767852 610201 -71843.8)
(-1.33556e+07 -2.10197e+07 -6.44867e+06 -1.89669e+06 265596 488872)
(-5.45983e+06 -7.23941e+06 -7.05682e+06 -1.16251e+06 -677756 -193004)
(-3.87791e+06 3.14891e+06 -3.54625e+06 -384518 2.84657e+06 -5.30862e+06)
(-8.2261e+06 9.96974e+06 -4.45917e+06 -324912 6.14347e+06 -2.11382e+06)
(-8.4329e+06 1.70676e+07 -4.28413e+06 631919 7.62676e+06 -921358)
(-8.23215e+06 2.20604e+07 -2.66087e+06 1.35309e+06 7.92835e+06 622426)
(-9.07109e+06 2.18421e+07 -2753.61 1.15958e+06 6.21816e+06 3.4084e+06)
(-1.11366e+07 1.43567e+07 2.86512e+06 -124943 1.24287e+06 7.02277e+06)
(-1.0479e+07 1.45312e+06 4.68413e+06 -1.50902e+06 -6.07824e+06 7.23842e+06)
(-7.48693e+06 -1.18676e+07 4.88101e+06 -2.17816e+06 -1.20372e+07 4.3455e+06)
(-6.27138e+06 -2.29301e+07 4.38201e+06 -2.32771e+06 -1.54488e+07 2.2921e+06)
(-6.51538e+06 -3.18375e+07 3.62278e+06 -2.1641e+06 -1.71742e+07 1.03124e+06)
(-7.70423e+06 -3.89536e+07 2.80511e+06 -1.78613e+06 -1.78624e+07 258293)
(-9.4634e+06 -4.45825e+07 2.01166e+06 -1.26503e+06 -1.79055e+07 -228292)
(-1.15427e+07 -4.89506e+07 1.27467e+06 -654422 -1.75347e+07 -546734)
(-1.37734e+07 -5.22274e+07 604424 5706.99 -1.68866e+07 -765630)
(-1.60382e+07 -5.45435e+07 1599.61 685520 -1.60428e+07 -925341)
(-1.82524e+07 -5.60031e+07 -537168 1.36239e+06 -1.5052e+07 -1.04987e+06)
(-2.03535e+07 -5.66919e+07 -1.0166e+06 2.01863e+06 -1.39433e+07 -1.15331e+06)
(-2.22948e+07 -5.6682e+07 -1.44143e+06 2.63986e+06 -1.27345e+07 -1.24348e+06)
(-2.40408e+07 -5.60361e+07 -1.81572e+06 3.21365e+06 -1.14376e+07 -1.32382e+06)
(-2.55651e+07 -5.4809e+07 -2.14284e+06 3.72835e+06 -1.00622e+07 -1.39454e+06)