/*--------------------------------*- C++ -*----------------------------------*\
| =========                 |                                                 |
| \\      /  F ield         | OpenFOAM: The Open Source CFD Toolbox           |
|  \\    /   O peration     | Version:  v2012                                 |
|   \\  /    A nd           | Website:  www.openfoam.com                      |
|    \\/     M anipulation  |                                                 |
\*---------------------------------------------------------------------------*/
FoamFile
{
    version     2.0;
    format      ascii;
    class       volScalarField;
    location    "1";
    object      epsilonEq;
}
// * * * * * * * * * * * * * * * * * * * * * * * * * * * * * * * * * * * * * //

dimensions      [0 0 0 0 0 0 0];


internalField   nonuniform List<scalar> 
32768
(
1.2101e+07
2.34094e+07
2.90222e+07
3.25466e+07
3.51844e+07
3.72857e+07
3.89566e+07
4.02276e+07
4.11056e+07
4.15912e+07
4.16849e+07
4.13893e+07
4.071e+07
3.96558e+07
3.82386e+07
3.64739e+07
3.43799e+07
3.19775e+07
2.92903e+07
2.63448e+07
2.31718e+07
1.98123e+07
1.63301e+07
1.28335e+07
9.47788e+06
6.30649e+06
3.02385e+06
4.15576e+06
7.66682e+06
1.02171e+07
1.05956e+07
5.9346e+06
2.21231e+07
3.95277e+07
5.00116e+07
5.64977e+07
6.11122e+07
6.46146e+07
6.7276e+07
6.91945e+07
7.04064e+07
7.09274e+07
7.07677e+07
6.99385e+07
6.84545e+07
6.63344e+07
6.36023e+07
6.02871e+07
5.64235e+07
5.20528e+07
4.72253e+07
4.2004e+07
3.64713e+07
3.0738e+07
2.49604e+07
1.93865e+07
1.44785e+07
1.08741e+07
8.11164e+06
6.49649e+06
1.085e+07
1.5768e+07
1.68296e+07
1.11506e+07
2.58511e+07
4.72311e+07
6.11433e+07
6.98139e+07
7.5783e+07
8.0129e+07
8.32908e+07
8.54507e+07
8.66887e+07
8.70453e+07
8.6547e+07
8.52171e+07
8.30804e+07
8.0165e+07
7.65041e+07
7.21364e+07
6.71077e+07
6.1473e+07
5.53005e+07
4.86757e+07
4.17074e+07
3.4536e+07
2.73683e+07
2.06258e+07
1.53599e+07
1.31332e+07
1.25555e+07
1.00786e+07
9.33373e+06
1.4786e+07
1.7231e+07
1.17832e+07
2.4864e+07
4.64173e+07
6.11223e+07
7.02414e+07
7.6202e+07
8.02217e+07
8.28655e+07
8.43997e+07
8.49577e+07
8.46154e+07
8.34237e+07
8.14237e+07
7.86537e+07
7.5153e+07
7.09639e+07
6.61337e+07
6.07174e+07
5.47806e+07
4.84052e+07
4.16958e+07
3.47922e+07
2.79055e+07
2.14508e+07
1.64549e+07
1.49132e+07
1.72271e+07
1.98455e+07
1.88053e+07
1.34673e+07
1.0299e+07
1.23557e+07
9.17956e+06
2.14862e+07
4.07766e+07
5.42661e+07
6.2345e+07
6.70942e+07
6.97479e+07
7.09593e+07
7.10761e+07
7.02939e+07
6.87339e+07
6.64808e+07
6.36015e+07
6.01555e+07
5.62e+07
5.17954e+07
4.70094e+07
4.19242e+07
3.66477e+07
3.13341e+07
2.62242e+07
2.17289e+07
1.85619e+07
1.77022e+07
1.96509e+07
2.36956e+07
2.8325e+07
3.15667e+07
3.11654e+07
2.5572e+07
1.62792e+07
8.34174e+06
4.5666e+06
1.7289e+07
3.32071e+07
4.43685e+07
5.04855e+07
5.32491e+07
5.38707e+07
5.30875e+07
5.13429e+07
4.89171e+07
4.60041e+07
4.27546e+07
3.93021e+07
3.57815e+07
3.23454e+07
2.91795e+07
2.6514e+07
2.46163e+07
2.37391e+07
2.40229e+07
2.5426e+07
2.77612e+07
3.08029e+07
3.43576e+07
3.82436e+07
4.217e+07
4.55369e+07
4.72545e+07
4.5815e+07
3.98543e+07
2.93032e+07
1.67057e+07
4.78728e+06
1.29198e+07
2.54012e+07
3.40896e+07
3.80236e+07
3.85843e+07
3.70448e+07
3.43216e+07
3.10854e+07
2.78921e+07
2.52699e+07
2.37253e+07
2.36203e+07
2.4998e+07
2.75825e+07
3.09729e+07
3.48102e+07
3.88271e+07
4.28365e+07
4.67101e+07
5.03638e+07
5.37505e+07
5.68535e+07
5.96688e+07
6.21578e+07
6.41577e+07
6.52522e+07
6.46641e+07
6.12936e+07
5.40354e+07
4.24281e+07
2.7472e+07
1.20306e+07
7.83681e+06
1.76416e+07
2.48217e+07
2.71353e+07
2.58863e+07
2.27826e+07
1.94835e+07
1.78041e+07
1.9164e+07
2.33394e+07
2.91287e+07
3.55982e+07
4.22229e+07
4.87084e+07
5.48751e+07
6.06039e+07
6.58105e+07
7.04337e+07
7.44307e+07
7.77768e+07
8.04659e+07
8.25075e+07
8.39116e+07
8.46512e+07
8.45958e+07
8.34228e+07
8.05462e+07
7.51325e+07
6.6277e+07
5.33598e+07
3.64821e+07
1.78078e+07
3.43485e+06
1.11477e+07
1.70438e+07
1.89068e+07
1.67835e+07
1.3791e+07
1.40586e+07
1.92478e+07
2.70927e+07
3.58486e+07
4.47479e+07
5.34157e+07
6.16347e+07
6.92639e+07
7.62039e+07
8.2382e+07
8.77443e+07
9.22517e+07
9.5879e+07
9.86157e+07
1.00465e+08
1.01443e+08
1.01557e+08
1.00787e+08
9.90247e+07
9.60188e+07
9.13207e+07
8.42856e+07
7.41621e+07
6.0264e+07
4.21502e+07
2.13239e+07
1.67956e+06
7.38469e+06
1.2514e+07
1.39572e+07
1.17557e+07
1.082e+07
1.62767e+07
2.53576e+07
3.54906e+07
4.57271e+07
5.56401e+07
6.49921e+07
7.36333e+07
8.14623e+07
8.84075e+07
9.44175e+07
9.94562e+07
1.035e+08
1.06537e+08
1.08568e+08
1.09603e+08
1.0966e+08
1.08751e+08
1.06857e+08
1.03893e+08
9.9665e+07
9.38289e+07
8.58833e+07
7.52066e+07
6.11239e+07
4.29537e+07
2.18387e+07
2.27475e+06
6.50318e+06
1.21878e+07
1.45012e+07
1.13258e+07
1.01015e+07
1.76662e+07
2.81974e+07
3.90707e+07
4.95715e+07
5.94114e+07
6.84422e+07
7.65774e+07
8.37633e+07
8.99662e+07
9.51654e+07
9.93503e+07
1.02519e+08
1.04676e+08
1.05837e+08
1.06021e+08
1.05251e+08
1.03541e+08
1.00881e+08
9.72065e+07
9.23701e+07
8.61118e+07
7.80485e+07
6.76883e+07
5.44634e+07
3.77922e+07
1.87724e+07
3.15292e+06
8.69721e+06
1.54043e+07
1.96419e+07
1.73577e+07
1.14254e+07
1.5624e+07
2.67193e+07
3.78016e+07
4.78796e+07
5.68322e+07
6.46705e+07
7.14268e+07
7.71343e+07
8.18239e+07
8.55253e+07
8.82668e+07
9.00773e+07
9.09868e+07
9.10275e+07
9.02324e+07
8.86326e+07
8.62496e+07
8.30822e+07
7.90876e+07
7.41602e+07
6.81129e+07
6.06727e+07
5.15006e+07
4.02567e+07
2.67896e+07
1.21395e+07
7.02479e+06
1.52397e+07
2.28423e+07
2.79301e+07
2.73249e+07
1.99851e+07
1.36371e+07
2.14377e+07
3.27013e+07
4.22067e+07
4.98186e+07
5.58313e+07
6.04997e+07
6.40121e+07
6.65079e+07
6.80942e+07
6.88569e+07
6.8868e+07
6.81899e+07
6.68792e+07
6.4987e+07
6.25577e+07
5.9625e+07
5.62029e+07
5.22749e+07
4.77829e+07
4.26229e+07
3.66617e+07
2.98009e+07
2.21389e+07
1.41435e+07
4.66847e+06
1.42011e+07
2.6418e+07
3.48773e+07
3.98105e+07
3.97737e+07
3.30528e+07
2.12106e+07
1.56149e+07
2.45773e+07
3.39903e+07
4.04654e+07
4.4542e+07
4.68527e+07
4.78537e+07
4.78648e+07
4.71182e+07
4.57903e+07
4.40223e+07
4.19324e+07
3.96246e+07
3.71937e+07
3.47283e+07
3.23115e+07
3.00199e+07
2.79243e+07
2.60955e+07
2.46189e+07
2.36066e+07
2.31391e+07
2.2912e+07
2.0986e+07
1.24171e+07
2.32477e+07
4.05882e+07
5.02429e+07
5.45449e+07
5.40242e+07
4.76408e+07
3.51324e+07
2.024e+07
1.58398e+07
2.37699e+07
2.97483e+07
3.22291e+07
3.23099e+07
3.0923e+07
2.87614e+07
2.63864e+07
2.43037e+07
2.29746e+07
2.27381e+07
2.36902e+07
2.56627e+07
2.83469e+07
3.1433e+07
3.46738e+07
3.78887e+07
4.0945e+07
4.3724e+07
4.60555e+07
4.75472e+07
4.70882e+07
4.13851e+07
2.50053e+07
3.28593e+07
5.59561e+07
6.71402e+07
7.06912e+07
6.90472e+07
6.21468e+07
4.96708e+07
3.2799e+07
1.68806e+07
1.39668e+07
1.93086e+07
2.11294e+07
1.97745e+07
1.71404e+07
1.5275e+07
1.61258e+07
1.99856e+07
2.56555e+07
3.20894e+07
3.87049e+07
4.51795e+07
5.13166e+07
5.69845e+07
6.20871e+07
6.65453e+07
7.02764e+07
7.31557e+07
7.4926e+07
7.4965e+07
7.16475e+07
6.06329e+07
3.60993e+07
4.09025e+07
6.90893e+07
8.19468e+07
8.50055e+07
8.22598e+07
7.45691e+07
6.1948e+07
4.49959e+07
2.61978e+07
1.17481e+07
1.03584e+07
1.21487e+07
1.06266e+07
9.92361e+06
1.43483e+07
2.2144e+07
3.1107e+07
4.03307e+07
4.9385e+07
5.80181e+07
6.60623e+07
7.33973e+07
7.99303e+07
8.55833e+07
9.02791e+07
9.39181e+07
9.63288e+07
9.71542e+07
9.55697e+07
8.95539e+07
7.40947e+07
4.34427e+07
4.55285e+07
7.71091e+07
9.13579e+07
9.42412e+07
9.07582e+07
8.24856e+07
6.98097e+07
5.32169e+07
3.42747e+07
1.65601e+07
6.72754e+06
6.45346e+06
5.86059e+06
9.99133e+06
1.88818e+07
2.92743e+07
4.0008e+07
5.05527e+07
6.06062e+07
6.9976e+07
7.85305e+07
8.61737e+07
9.283e+07
9.84307e+07
1.02899e+08
1.06121e+08
1.07891e+08
1.07782e+08
1.0484e+08
9.68513e+07
7.86967e+07
4.53799e+07
4.51986e+07
7.73807e+07
9.22239e+07
9.51662e+07
9.14843e+07
8.31789e+07
7.09274e+07
5.52297e+07
3.72292e+07
1.95102e+07
7.79096e+06
7.37812e+06
6.38831e+06
1.04456e+07
2.06261e+07
3.19808e+07
4.32545e+07
5.39868e+07
6.39517e+07
7.30215e+07
8.11181e+07
8.8188e+07
9.41885e+07
9.90744e+07
1.02782e+08
1.052e+08
1.06112e+08
1.05065e+08
1.01083e+08
9.20161e+07
7.32869e+07
4.12608e+07
3.92471e+07
6.87186e+07
8.29027e+07
8.591e+07
8.25188e+07
7.48146e+07
6.36374e+07
4.95259e+07
3.34185e+07
1.75259e+07
8.80361e+06
1.23908e+07
1.24769e+07
1.0435e+07
1.82347e+07
2.99846e+07
4.12335e+07
5.13768e+07
6.03439e+07
6.81548e+07
7.4844e+07
8.04421e+07
8.49681e+07
8.84221e+07
9.07722e+07
9.19298e+07
9.16966e+07
8.96512e+07
8.49124e+07
7.56732e+07
5.85172e+07
3.15119e+07
2.80705e+07
5.16688e+07
6.36665e+07
6.64817e+07
6.37049e+07
5.71708e+07
4.77482e+07
3.60409e+07
2.30971e+07
1.23456e+07
1.34897e+07
2.02963e+07
2.19864e+07
1.69368e+07
1.44049e+07
2.39213e+07
3.51585e+07
4.44926e+07
5.19359e+07
5.77944e+07
6.23223e+07
6.57029e+07
6.80604e+07
6.94681e+07
6.99475e+07
6.94538e+07
6.78385e+07
6.47694e+07
5.95842e+07
5.10769e+07
3.74207e+07
1.78393e+07
1.36952e+07
2.98733e+07
3.81223e+07
4.024e+07
3.82583e+07
3.35244e+07
2.6975e+07
1.98607e+07
1.5396e+07
1.82325e+07
2.56653e+07
3.21739e+07
3.40549e+07
2.91039e+07
1.92576e+07
1.66835e+07
2.61103e+07
3.50492e+07
4.10608e+07
4.47551e+07
4.67713e+07
4.75609e+07
4.74245e+07
4.65535e+07
4.50547e+07
4.29602e+07
4.0221e+07
3.66906e+07
3.21251e+07
2.62946e+07
1.90297e+07
6.65007e+06
9.45214e+06
2.00927e+07
2.30941e+07
2.37923e+07
2.36296e+07
2.34973e+07
2.43442e+07
2.6953e+07
3.15007e+07
3.7378e+07
4.33304e+07
4.76153e+07
4.81849e+07
4.3171e+07
3.20842e+07
1.89893e+07
1.66674e+07
2.43133e+07
2.96204e+07
3.1578e+07
3.13378e+07
2.98457e+07
2.77798e+07
2.56481e+07
2.38602e+07
2.27567e+07
2.25931e+07
2.34994e+07
2.54218e+07
2.77745e+07
2.76366e+07
1.71772e+07
2.3857e+07
3.92385e+07
4.37748e+07
4.49824e+07
4.60539e+07
4.76895e+07
5.00002e+07
5.29564e+07
5.64138e+07
6.00176e+07
6.30885e+07
6.4561e+07
6.30463e+07
5.71153e+07
4.59407e+07
3.05213e+07
1.6293e+07
1.42829e+07
1.88276e+07
2.005e+07
1.86182e+07
1.66399e+07
1.61559e+07
1.83156e+07
2.26658e+07
2.82099e+07
3.42513e+07
4.03375e+07
4.59294e+07
4.96491e+07
4.70178e+07
2.97564e+07
3.69364e+07
6.08208e+07
7.01173e+07
7.31003e+07
7.44997e+07
7.56658e+07
7.69145e+07
7.82621e+07
7.95945e+07
8.06517e+07
8.09607e+07
7.97837e+07
7.61422e+07
6.89826e+07
5.7561e+07
4.21255e+07
2.49481e+07
1.18556e+07
1.00042e+07
1.12308e+07
1.08057e+07
1.2853e+07
1.87261e+07
2.65043e+07
3.48855e+07
4.3284e+07
5.13665e+07
5.87746e+07
6.47831e+07
6.74502e+07
6.12769e+07
3.80645e+07
4.49852e+07
7.52824e+07
8.87199e+07
9.34549e+07
9.52011e+07
9.5899e+07
9.6141e+07
9.60649e+07
9.56283e+07
9.46584e+07
9.28272e+07
8.96206e+07
8.43498e+07
7.62537e+07
6.47451e+07
4.98436e+07
3.27998e+07
1.67748e+07
6.86872e+06
5.65039e+06
8.49418e+06
1.53381e+07
2.44367e+07
3.41759e+07
4.38242e+07
5.30481e+07
6.16065e+07
6.91076e+07
7.46443e+07
7.59159e+07
6.70799e+07
4.0847e+07
4.6696e+07
7.96221e+07
9.54721e+07
1.01422e+08
1.03442e+08
1.03821e+08
1.03364e+08
1.02317e+08
1.00707e+08
9.84365e+07
9.52854e+07
9.09025e+07
8.48105e+07
7.64715e+07
6.54474e+07
5.16852e+07
3.59388e+07
2.02622e+07
8.29162e+06
3.59369e+06
7.17805e+06
1.61248e+07
2.6625e+07
3.69423e+07
4.65664e+07
5.53845e+07
6.33019e+07
6.99651e+07
7.44088e+07
7.42648e+07
6.40603e+07
3.81345e+07
4.20689e+07
7.33532e+07
8.93586e+07
9.56272e+07
9.76546e+07
9.77749e+07
9.68868e+07
9.53072e+07
9.31143e+07
9.02659e+07
8.66251e+07
8.19593e+07
7.5946e+07
6.82156e+07
5.84545e+07
4.65938e+07
3.30964e+07
1.93466e+07
8.23124e+06
4.38434e+06
4.90622e+06
1.27402e+07
2.41947e+07
3.47679e+07
4.36313e+07
5.11002e+07
5.74395e+07
6.24828e+07
6.53645e+07
6.39419e+07
5.3705e+07
3.10069e+07
3.23794e+07
5.82308e+07
7.21085e+07
7.76612e+07
7.93158e+07
7.91478e+07
7.80183e+07
7.62585e+07
7.39742e+07
7.11625e+07
6.7746e+07
6.35785e+07
5.84511e+07
5.21193e+07
4.43689e+07
3.5139e+07
2.47199e+07
1.40975e+07
6.18107e+06
6.62289e+06
7.00446e+06
7.4197e+06
1.73116e+07
2.8273e+07
3.63547e+07
4.20135e+07
4.62066e+07
4.9175e+07
5.03157e+07
4.79545e+07
3.88971e+07
2.13874e+07
2.01313e+07
3.81867e+07
4.82059e+07
5.21936e+07
5.31712e+07
5.27102e+07
5.15108e+07
4.98643e+07
4.78793e+07
4.55762e+07
4.2919e+07
3.98238e+07
3.61645e+07
3.17913e+07
2.65737e+07
2.04857e+07
1.37815e+07
7.58607e+06
6.18101e+06
9.51924e+06
1.09159e+07
8.42087e+06
9.55782e+06
1.86315e+07
2.61939e+07
3.02409e+07
3.2308e+07
3.32939e+07
3.29862e+07
3.03347e+07
2.35093e+07
1.18429e+07
9.01453e+06
1.91879e+07
2.48136e+07
2.69786e+07
2.72961e+07
2.67191e+07
2.57107e+07
2.44815e+07
2.31218e+07
2.16608e+07
2.00891e+07
1.83667e+07
1.64305e+07
1.42114e+07
1.16771e+07
8.93666e+06
6.54588e+06
6.01214e+06
7.96768e+06
1.05263e+07
1.19031e+07
1.09266e+07
8.25173e+06
1.01032e+07
1.53337e+07
1.81618e+07
1.87385e+07
1.84944e+07
1.75752e+07
1.55665e+07
1.17896e+07
5.28467e+06
2.922e+06
7.0755e+06
9.64935e+06
1.06717e+07
1.07914e+07
1.04684e+07
9.94816e+06
9.35422e+06
8.74625e+06
8.14877e+06
7.56399e+06
6.97947e+06
6.37867e+06
5.76186e+06
5.18481e+06
4.81315e+06
4.91915e+06
5.66932e+06
6.8955e+06
8.17752e+06
8.97469e+06
8.7137e+06
7.13896e+06
5.67218e+06
7.36216e+06
9.0196e+06
8.96494e+06
8.43174e+06
7.63343e+06
6.52491e+06
5.13753e+06
2.36804e+06
2.4538e+07
4.38632e+07
5.4653e+07
6.16449e+07
6.69497e+07
7.12162e+07
7.46456e+07
7.72966e+07
7.91832e+07
8.03064e+07
8.06669e+07
8.02688e+07
7.91212e+07
7.72392e+07
7.4644e+07
7.1363e+07
6.74303e+07
6.28867e+07
5.77801e+07
5.21636e+07
4.60916e+07
3.96156e+07
3.27931e+07
2.57433e+07
1.87663e+07
1.24159e+07
6.96275e+06
8.61256e+06
1.43859e+07
1.93464e+07
2.04303e+07
1.2225e+07
3.90497e+07
3.56026e+07
4.38947e+07
5.04219e+07
5.53272e+07
5.91527e+07
6.21585e+07
6.44529e+07
6.60803e+07
6.70602e+07
6.74045e+07
6.71239e+07
6.62311e+07
6.47429e+07
6.26809e+07
6.00729e+07
5.69535e+07
5.33656e+07
4.93585e+07
4.49842e+07
4.02873e+07
3.52945e+07
3.00158e+07
2.44978e+07
1.90043e+07
1.42423e+07
1.13156e+07
1.16774e+07
1.16432e+07
1.29517e+07
1.25951e+07
1.87623e+07
4.72797e+07
3.81355e+07
4.323e+07
4.93825e+07
5.46929e+07
5.91288e+07
6.27986e+07
6.57683e+07
6.80685e+07
6.97122e+07
7.07059e+07
7.10553e+07
7.07681e+07
6.98554e+07
6.83328e+07
6.62205e+07
6.35433e+07
6.03295e+07
5.66093e+07
5.24103e+07
4.77523e+07
4.2642e+07
3.70764e+07
3.10855e+07
2.48555e+07
1.88773e+07
1.48088e+07
1.68685e+07
1.7823e+07
1.48763e+07
1.20051e+07
2.0884e+07
4.8583e+07
4.3273e+07
4.9435e+07
5.68127e+07
6.35477e+07
6.94373e+07
7.44992e+07
7.8756e+07
8.22152e+07
8.48753e+07
8.6732e+07
8.77827e+07
8.80279e+07
8.74727e+07
8.61274e+07
8.40073e+07
8.11323e+07
7.75267e+07
7.3218e+07
6.82338e+07
6.2596e+07
5.6312e+07
4.93743e+07
4.18054e+07
3.38105e+07
2.60585e+07
2.02256e+07
2.03321e+07
2.47369e+07
2.25463e+07
1.50481e+07
1.80517e+07
4.51233e+07
4.5221e+07
5.37609e+07
6.27921e+07
7.09624e+07
7.81498e+07
8.43834e+07
8.96856e+07
9.40616e+07
9.75069e+07
1.00014e+08
1.01577e+08
1.02193e+08
1.01865e+08
1.00601e+08
9.84157e+07
9.53285e+07
9.13664e+07
8.6561e+07
8.09457e+07
7.45472e+07
6.73769e+07
5.94347e+07
5.07651e+07
4.16228e+07
3.27892e+07
2.59481e+07
2.36439e+07
2.70523e+07
2.91969e+07
2.06059e+07
1.20487e+07
3.8983e+07
4.30802e+07
5.3211e+07
6.32267e+07
7.21358e+07
7.99043e+07
8.66069e+07
9.22967e+07
9.69984e+07
1.0072e+08
1.03461e+08
1.0522e+08
1.05996e+08
1.05793e+08
1.04619e+08
1.02489e+08
9.94239e+07
9.54534e+07
9.06115e+07
8.49345e+07
7.84535e+07
7.11887e+07
6.31614e+07
5.44563e+07
4.53778e+07
3.6722e+07
3.00143e+07
2.70288e+07
2.79779e+07
3.05255e+07
2.6333e+07
8.28375e+06
3.16421e+07
3.82349e+07
4.83084e+07
5.81681e+07
6.68377e+07
7.42466e+07
8.05088e+07
8.573e+07
8.99787e+07
9.32932e+07
9.56942e+07
9.71928e+07
9.77971e+07
9.75156e+07
9.63604e+07
9.43484e+07
9.15032e+07
8.7855e+07
8.344e+07
7.82975e+07
7.24654e+07
6.59809e+07
5.89004e+07
5.13636e+07
4.37281e+07
3.67622e+07
3.16903e+07
2.95376e+07
2.98745e+07
3.07586e+07
2.90601e+07
1.7195e+07
2.34091e+07
3.30078e+07
4.0859e+07
4.94156e+07
5.69567e+07
6.31363e+07
6.80827e+07
7.19847e+07
7.49873e+07
7.71848e+07
7.86354e+07
7.93746e+07
7.94264e+07
7.881e+07
7.75445e+07
7.56526e+07
7.31625e+07
7.01092e+07
6.65347e+07
6.24878e+07
5.80245e+07
5.32154e+07
4.81725e+07
4.31064e+07
3.84112e+07
3.47019e+07
3.26041e+07
3.21966e+07
3.26707e+07
3.27899e+07
3.15264e+07
2.91658e+07
1.42674e+07
2.7724e+07
3.24934e+07
3.89042e+07
4.49841e+07
4.94935e+07
5.2576e+07
5.45792e+07
5.57898e+07
5.64021e+07
5.65382e+07
5.62733e+07
5.56556e+07
5.47206e+07
5.34994e+07
5.20252e+07
5.03365e+07
4.84796e+07
4.65102e+07
4.44941e+07
4.25089e+07
4.0649e+07
3.90347e+07
3.78165e+07
3.71511e+07
3.71172e+07
3.75773e+07
3.80816e+07
3.79501e+07
3.66532e+07
3.48355e+07
3.75875e+07
6.42699e+06
2.11971e+07
2.41052e+07
2.75766e+07
3.28352e+07
3.61019e+07
3.74478e+07
3.76087e+07
3.71858e+07
3.65889e+07
3.60709e+07
3.57715e+07
3.57528e+07
3.60267e+07
3.6574e+07
3.73589e+07
3.83383e+07
3.9468e+07
4.07067e+07
4.20174e+07
4.33691e+07
4.47367e+07
4.60966e+07
4.74149e+07
4.86209e+07
4.95637e+07
4.99636e+07
4.93886e+07
4.73186e+07
4.34659e+07
3.90908e+07
4.19323e+07
3.19644e+06
1.51647e+07
1.76091e+07
1.72537e+07
2.18905e+07
2.52102e+07
2.57536e+07
2.51524e+07
2.48016e+07
2.556e+07
2.76519e+07
3.08269e+07
3.46783e+07
3.88496e+07
4.30843e+07
4.72102e+07
5.11125e+07
5.47141e+07
5.79625e+07
6.08225e+07
6.32704e+07
6.5289e+07
6.68579e+07
6.79386e+07
6.84493e+07
6.82312e+07
6.70131e+07
6.43907e+07
5.98544e+07
5.29807e+07
4.44105e+07
4.15284e+07
4.84854e+06
1.37786e+07
1.49808e+07
1.27116e+07
1.6048e+07
2.04275e+07
2.05812e+07
2.03929e+07
2.24014e+07
2.70173e+07
3.3263e+07
4.01779e+07
4.71787e+07
5.39425e+07
6.02861e+07
6.60999e+07
7.13139e+07
7.5882e+07
7.97728e+07
8.29654e+07
8.5446e+07
8.72031e+07
8.82196e+07
8.84592e+07
8.78452e+07
8.62326e+07
8.33764e+07
7.89017e+07
7.22801e+07
6.28179e+07
4.97914e+07
3.61026e+07
8.83851e+06
1.828e+07
1.75962e+07
1.48351e+07
1.65856e+07
2.31175e+07
2.44869e+07
2.27131e+07
2.51012e+07
3.15527e+07
3.98892e+07
4.86917e+07
5.72934e+07
6.53834e+07
7.28061e+07
7.94758e+07
8.53409e+07
9.03672e+07
9.45314e+07
9.78175e+07
1.00214e+08
1.0171e+08
1.02288e+08
1.01915e+08
1.00523e+08
9.79837e+07
9.40855e+07
8.84882e+07
8.06525e+07
6.96294e+07
5.32991e+07
2.6902e+07
1.68436e+07
2.45876e+07
2.31285e+07
1.98319e+07
2.00448e+07
2.54168e+07
3.10174e+07
2.96131e+07
2.83054e+07
3.36866e+07
4.24656e+07
5.20262e+07
6.1311e+07
6.99291e+07
7.77298e+07
8.46502e+07
9.06599e+07
9.5741e+07
9.98815e+07
1.03072e+08
1.05305e+08
1.06571e+08
1.06855e+08
1.06126e+08
1.04328e+08
1.01354e+08
9.70237e+07
9.10395e+07
8.28765e+07
7.14428e+07
5.37972e+07
2.05445e+07
2.88728e+07
2.9494e+07
2.76119e+07
2.44229e+07
2.40188e+07
2.70749e+07
3.26116e+07
3.56493e+07
3.2535e+07
3.31494e+07
4.02925e+07
4.93259e+07
5.81948e+07
6.62975e+07
7.34885e+07
7.97505e+07
8.50958e+07
8.95385e+07
9.30881e+07
9.57498e+07
9.75249e+07
9.84102e+07
9.83958e+07
9.74582e+07
9.55517e+07
9.25928e+07
8.84378e+07
8.28374e+07
7.53214e+07
6.48517e+07
4.88691e+07
2.83078e+07
4.3212e+07
3.11494e+07
2.87496e+07
2.70773e+07
2.74521e+07
2.96401e+07
3.25322e+07
3.57414e+07
3.53722e+07
3.20628e+07
3.52029e+07
4.28052e+07
5.05881e+07
5.7443e+07
6.32452e+07
6.80777e+07
7.20378e+07
7.51987e+07
7.7608e+07
7.92952e+07
8.02771e+07
8.05612e+07
8.01462e+07
7.90185e+07
7.71467e+07
7.447e+07
7.08796e+07
6.61781e+07
5.99855e+07
5.15692e+07
4.05732e+07
4.47975e+07
5.75651e+07
3.1124e+07
2.78844e+07
2.89198e+07
3.10267e+07
3.32144e+07
3.45525e+07
3.47766e+07
3.40288e+07
3.00484e+07
2.79785e+07
3.32059e+07
3.97133e+07
4.48954e+07
4.86843e+07
5.13937e+07
5.32999e+07
5.45894e+07
5.53772e+07
5.57316e+07
5.5692e+07
5.528e+07
5.4505e+07
5.33639e+07
5.18375e+07
4.98808e+07
4.74023e+07
4.42256e+07
4.0045e+07
3.47319e+07
3.25916e+07
6.06165e+07
6.91936e+07
3.30331e+07
3.03059e+07
3.42087e+07
3.7566e+07
3.9393e+07
3.92695e+07
3.70768e+07
3.31628e+07
2.77097e+07
2.0801e+07
2.18371e+07
2.81187e+07
3.23103e+07
3.42665e+07
3.48382e+07
3.46957e+07
3.42726e+07
3.38265e+07
3.34974e+07
3.33491e+07
3.3396e+07
3.3619e+07
3.39723e+07
3.43834e+07
3.47418e+07
3.48727e+07
3.44942e+07
3.32318e+07
3.13592e+07
3.54227e+07
7.13194e+07
7.53909e+07
4.09541e+07
4.13346e+07
4.61063e+07
4.89508e+07
4.9404e+07
4.7391e+07
4.29168e+07
3.63189e+07
2.81549e+07
1.84509e+07
1.10414e+07
1.71698e+07
2.21353e+07
2.33831e+07
2.29544e+07
2.2449e+07
2.28608e+07
2.45317e+07
2.72792e+07
3.07149e+07
3.44776e+07
3.82988e+07
4.1984e+07
4.53754e+07
4.83119e+07
5.05789e+07
5.18424e+07
5.16039e+07
4.95563e+07
4.91372e+07
7.43764e+07
7.42732e+07
5.34643e+07
5.82581e+07
6.27148e+07
6.40822e+07
6.26165e+07
5.85011e+07
5.18446e+07
4.29819e+07
3.26342e+07
2.16552e+07
1.12682e+07
1.24826e+07
1.87086e+07
1.96469e+07
1.96586e+07
2.14617e+07
2.57019e+07
3.15509e+07
3.8083e+07
4.47132e+07
5.11105e+07
5.70787e+07
6.24829e+07
6.72035e+07
7.10968e+07
7.39437e+07
7.53684e+07
7.47149e+07
7.09832e+07
6.40467e+07
6.89113e+07
6.52995e+07
6.56071e+07
7.47605e+07
7.8893e+07
7.88898e+07
7.57527e+07
6.99186e+07
6.16054e+07
5.11588e+07
3.93275e+07
2.74104e+07
1.76118e+07
1.57297e+07
2.26415e+07
2.47185e+07
2.32445e+07
2.5581e+07
3.1728e+07
3.97348e+07
4.82376e+07
5.65632e+07
6.43843e+07
7.15243e+07
7.78647e+07
8.3295e+07
8.76717e+07
9.0764e+07
9.21592e+07
9.10753e+07
8.59687e+07
7.38503e+07
5.59363e+07
4.99652e+07
7.31235e+07
8.58063e+07
8.98664e+07
8.90177e+07
8.48661e+07
7.80639e+07
6.89296e+07
5.78265e+07
4.54618e+07
3.31758e+07
2.33509e+07
1.98835e+07
2.49392e+07
3.12989e+07
3.04041e+07
2.93194e+07
3.4413e+07
4.27536e+07
5.19185e+07
6.08631e+07
6.91747e+07
7.66736e+07
8.3257e+07
8.88297e+07
9.32593e+07
9.63209e+07
9.75962e+07
9.6249e+07
9.04218e+07
7.53224e+07
3.89532e+07
3.3568e+07
7.31849e+07
8.77917e+07
9.18971e+07
9.07783e+07
8.63843e+07
7.9501e+07
7.05193e+07
5.98186e+07
4.80535e+07
3.64573e+07
2.72096e+07
2.32732e+07
2.56195e+07
3.19598e+07
3.57878e+07
3.3258e+07
3.39375e+07
4.06683e+07
4.92512e+07
5.77513e+07
6.55552e+07
7.24814e+07
7.84644e+07
8.34472e+07
8.73305e+07
8.99206e+07
9.08337e+07
8.92633e+07
8.33031e+07
6.76572e+07
2.7008e+07
3.00375e+07
6.50006e+07
7.92079e+07
8.3215e+07
8.22574e+07
7.82986e+07
7.21564e+07
6.42582e+07
5.4999e+07
4.5005e+07
3.54139e+07
2.81256e+07
2.52364e+07
2.67111e+07
3.04037e+07
3.47546e+07
3.52513e+07
3.24096e+07
3.51967e+07
4.21342e+07
4.93368e+07
5.57434e+07
6.11906e+07
6.5703e+07
6.93035e+07
7.19575e+07
7.35307e+07
7.37081e+07
7.17834e+07
6.60511e+07
5.22071e+07
3.28304e+07
4.40445e+07
5.02251e+07
6.1028e+07
6.45636e+07
6.40163e+07
6.10074e+07
5.62928e+07
5.03161e+07
4.35128e+07
3.65477e+07
3.0526e+07
2.69224e+07
2.65469e+07
2.83608e+07
3.05516e+07
3.21561e+07
3.28034e+07
2.98967e+07
2.80835e+07
3.25867e+07
3.8324e+07
4.29368e+07
4.6328e+07
4.8734e+07
5.03422e+07
5.12327e+07
5.13584e+07
5.04866e+07
4.80247e+07
4.26188e+07
3.28952e+07
4.712e+07
6.02261e+07
3.44757e+07
3.78658e+07
4.04985e+07
4.06227e+07
3.9126e+07
3.66561e+07
3.37054e+07
3.08036e+07
2.86147e+07
2.78045e+07
2.86001e+07
3.04516e+07
3.2293e+07
3.31219e+07
3.24537e+07
3.03548e+07
2.66474e+07
2.0926e+07
2.15135e+07
2.66974e+07
3.0154e+07
3.16897e+07
3.2029e+07
3.17132e+07
3.10456e+07
3.01072e+07
2.87225e+07
2.63014e+07
2.17991e+07
2.01107e+07
5.83496e+07
7.05097e+07
3.03535e+07
2.50254e+07
2.6721e+07
2.8236e+07
2.92776e+07
3.01869e+07
3.12299e+07
3.25718e+07
3.42675e+07
3.62243e+07
3.81667e+07
3.96399e+07
4.00803e+07
3.89667e+07
3.60394e+07
3.14649e+07
2.55516e+07
1.78222e+07
1.08525e+07
1.5338e+07
1.95138e+07
2.05818e+07
2.03314e+07
2.01406e+07
2.07421e+07
2.21798e+07
2.39679e+07
2.52565e+07
2.52109e+07
2.81542e+07
6.27368e+07
7.20511e+07
4.10699e+07
3.9114e+07
4.13698e+07
4.3446e+07
4.52023e+07
4.67871e+07
4.82699e+07
4.9652e+07
5.08755e+07
5.18093e+07
5.22299e+07
5.1817e+07
5.01849e+07
4.69697e+07
4.1981e+07
3.53763e+07
2.76657e+07
1.91476e+07
9.27442e+06
7.83805e+06
1.39994e+07
1.55833e+07
1.69188e+07
1.98839e+07
2.44532e+07
2.97075e+07
3.47696e+07
3.87741e+07
4.06454e+07
4.10648e+07
5.96406e+07
6.45692e+07
5.20543e+07
5.61882e+07
5.97622e+07
6.20315e+07
6.35492e+07
6.46026e+07
6.52888e+07
6.56154e+07
6.55367e+07
6.49542e+07
6.37071e+07
6.15689e+07
5.82664e+07
5.35372e+07
4.72354e+07
3.94783e+07
3.07618e+07
2.18116e+07
1.30452e+07
7.83876e+06
1.46903e+07
1.79285e+07
1.87315e+07
2.29662e+07
2.93267e+07
3.61666e+07
4.2484e+07
4.74511e+07
4.97564e+07
4.77981e+07
5.02354e+07
4.98182e+07
5.48423e+07
6.29738e+07
6.73188e+07
6.95738e+07
7.07732e+07
7.1328e+07
7.13739e+07
7.0937e+07
6.9993e+07
6.84799e+07
6.62947e+07
6.3291e+07
5.92895e+07
5.41142e+07
4.7662e+07
4.00094e+07
3.15326e+07
2.29374e+07
1.49928e+07
8.83031e+06
1.19766e+07
2.01478e+07
2.21716e+07
2.40439e+07
2.95945e+07
3.60778e+07
4.20805e+07
4.68092e+07
4.89245e+07
4.57625e+07
3.69807e+07
3.1433e+07
4.67964e+07
5.58569e+07
5.99438e+07
6.17513e+07
6.24823e+07
6.25933e+07
6.22359e+07
6.1447e+07
6.02181e+07
5.85144e+07
5.62758e+07
5.34152e+07
4.98248e+07
4.53976e+07
4.00709e+07
3.38985e+07
2.71443e+07
2.03538e+07
1.42365e+07
9.20514e+06
7.01722e+06
1.38749e+07
2.14987e+07
2.37426e+07
2.63172e+07
3.04886e+07
3.44846e+07
3.76418e+07
3.88205e+07
3.55377e+07
2.30473e+07
1.50391e+07
3.09511e+07
3.86029e+07
4.18718e+07
4.30892e+07
4.33113e+07
4.29923e+07
4.23199e+07
4.1366e+07
4.01489e+07
3.86566e+07
3.6853e+07
3.4683e+07
3.20803e+07
2.8987e+07
2.53908e+07
2.13904e+07
1.73108e+07
1.38686e+07
1.2064e+07
1.19425e+07
1.18185e+07
1.08399e+07
1.31693e+07
1.81926e+07
2.17739e+07
2.37551e+07
2.51147e+07
2.58331e+07
2.51945e+07
2.14092e+07
1.09225e+07
2.36026e+07
4.47393e+07
5.69557e+07
6.50601e+07
7.12439e+07
7.62468e+07
8.03179e+07
8.35378e+07
8.59292e+07
8.74968e+07
8.82415e+07
8.81664e+07
8.72787e+07
8.55905e+07
8.31199e+07
7.98911e+07
7.59366e+07
7.12999e+07
6.60377e+07
6.02164e+07
5.38937e+07
4.7077e+07
3.9687e+07
3.16567e+07
2.39061e+07
1.74554e+07
1.36083e+07
1.30814e+07
1.62875e+07
2.06032e+07
2.1661e+07
1.31161e+07
3.94971e+07
4.09451e+07
4.97738e+07
5.66389e+07
6.18994e+07
6.60504e+07
6.93312e+07
7.18447e+07
7.36343e+07
7.47207e+07
7.51172e+07
7.4836e+07
7.38915e+07
7.23022e+07
7.00921e+07
6.72941e+07
6.39534e+07
6.01316e+07
5.59079e+07
5.13686e+07
4.65789e+07
4.15373e+07
3.61427e+07
3.0278e+07
2.45614e+07
1.70015e+07
1.24651e+07
1.36772e+07
1.4309e+07
1.39739e+07
1.11878e+07
1.85786e+07
5.06859e+07
3.65551e+07
3.80746e+07
4.14526e+07
4.43399e+07
4.65736e+07
4.82463e+07
4.94392e+07
5.0204e+07
5.05739e+07
5.05738e+07
5.02254e+07
4.95503e+07
4.8573e+07
4.73223e+07
4.58339e+07
4.41508e+07
4.23213e+07
4.03884e+07
3.8373e+07
3.62575e+07
3.3984e+07
3.14598e+07
2.85342e+07
2.48537e+07
1.89526e+07
1.14513e+07
1.47888e+07
1.78239e+07
1.55308e+07
7.33111e+06
2.12982e+07
5.68534e+07
3.49654e+07
2.84713e+07
2.7483e+07
2.81649e+07
2.93382e+07
3.06847e+07
3.21107e+07
3.35723e+07
3.50336e+07
3.64605e+07
3.78197e+07
3.90806e+07
4.02154e+07
4.11989e+07
4.20077e+07
4.26176e+07
4.29997e+07
4.31165e+07
4.29181e+07
4.23397e+07
4.12902e+07
3.96127e+07
3.70105e+07
3.29807e+07
2.67618e+07
1.84325e+07
1.66628e+07
2.24896e+07
2.12961e+07
1.22283e+07
1.99838e+07
5.81081e+07
3.73812e+07
2.96742e+07
2.88275e+07
3.13573e+07
3.53235e+07
3.98084e+07
4.43776e+07
4.88013e+07
5.29417e+07
5.67078e+07
6.00348e+07
6.28746e+07
6.51902e+07
6.69521e+07
6.81362e+07
6.87218e+07
6.86909e+07
6.8027e+07
6.67106e+07
6.47067e+07
6.19347e+07
5.82255e+07
5.32923e+07
4.6795e+07
3.85607e+07
2.92772e+07
2.33835e+07
2.73227e+07
2.89017e+07
1.92732e+07
1.5379e+07
5.51567e+07
4.05818e+07
3.72423e+07
4.03257e+07
4.64114e+07
5.3588e+07
6.09491e+07
6.8051e+07
7.4653e+07
8.06102e+07
8.58279e+07
9.02405e+07
9.38007e+07
9.64736e+07
9.8234e+07
9.90641e+07
9.89535e+07
9.78986e+07
9.59013e+07
9.29622e+07
8.90636e+07
8.41397e+07
7.80467e+07
7.05651e+07
6.15024e+07
5.0955e+07
3.98188e+07
3.10628e+07
3.06038e+07
3.48818e+07
2.77556e+07
9.74233e+06
4.90989e+07
4.16997e+07
4.27637e+07
4.91128e+07
5.78865e+07
6.73941e+07
7.67979e+07
8.56708e+07
9.37757e+07
1.0097e+08
1.0716e+08
1.12285e+08
1.16301e+08
1.19176e+08
1.20891e+08
1.21433e+08
1.20801e+08
1.18999e+08
1.1604e+08
1.11934e+08
1.06676e+08
1.00219e+08
9.24594e+07
8.32556e+07
7.25233e+07
6.04578e+07
4.79296e+07
3.7221e+07
3.25898e+07
3.56068e+07
3.45717e+07
1.40058e+07
4.07476e+07
4.04019e+07
4.37323e+07
5.16081e+07
6.17983e+07
7.25491e+07
8.29807e+07
9.26686e+07
1.01394e+08
1.09037e+08
1.15523e+08
1.20809e+08
1.24864e+08
1.27668e+08
1.29211e+08
1.2949e+08
1.28509e+08
1.26281e+08
1.22823e+08
1.1815e+08
1.12267e+08
1.05146e+08
9.67273e+07
8.6936e+07
7.57675e+07
6.34591e+07
5.07941e+07
3.96283e+07
3.33157e+07
3.39327e+07
3.64673e+07
2.76756e+07
2.99354e+07
3.86943e+07
4.11382e+07
4.8267e+07
5.8458e+07
6.92786e+07
7.95963e+07
8.89682e+07
9.72225e+07
1.04293e+08
1.10157e+08
1.14806e+08
1.18241e+08
1.20466e+08
1.21488e+08
1.21316e+08
1.19965e+08
1.17454e+08
1.13805e+08
1.09039e+08
1.03165e+08
9.61775e+07
8.805e+07
7.8764e+07
6.83755e+07
5.71542e+07
4.58353e+07
3.60664e+07
3.076e+07
3.19729e+07
3.69889e+07
4.12983e+07
1.77315e+07
3.56501e+07
3.73248e+07
4.09106e+07
4.97965e+07
5.98024e+07
6.90438e+07
7.7035e+07
8.37121e+07
8.91242e+07
9.33402e+07
9.64231e+07
9.84246e+07
9.93864e+07
9.93431e+07
9.83257e+07
9.63638e+07
9.34869e+07
8.97242e+07
8.51024e+07
7.96413e+07
7.33518e+07
6.62413e+07
5.83401e+07
4.97657e+07
4.08562e+07
3.24343e+07
2.62652e+07
2.49589e+07
2.93185e+07
3.76935e+07
5.06768e+07
7.67418e+06
2.81981e+07
3.20035e+07
3.13643e+07
3.79023e+07
4.69871e+07
5.48143e+07
6.0766e+07
6.50277e+07
6.78775e+07
6.95502e+07
7.02226e+07
7.00243e+07
6.9052e+07
6.73801e+07
6.50699e+07
6.21744e+07
5.87429e+07
5.48226e+07
5.04605e+07
4.57046e+07
4.06111e+07
3.52648e+07
2.98315e+07
2.46748e+07
2.0562e+07
1.87547e+07
2.01629e+07
2.42397e+07
3.01915e+07
3.90795e+07
5.59093e+07
5.34031e+06
2.02058e+07
2.53132e+07
2.11375e+07
2.43377e+07
3.35892e+07
4.06165e+07
4.45755e+07
4.6147e+07
4.60417e+07
4.47835e+07
4.27356e+07
4.01526e+07
3.72236e+07
3.41055e+07
3.09472e+07
2.79106e+07
2.51883e+07
2.30121e+07
2.1635e+07
2.12652e+07
2.19732e+07
2.36552e+07
2.60905e+07
2.90176e+07
3.21578e+07
3.51941e+07
3.77556e+07
3.95007e+07
4.05678e+07
4.3243e+07
5.63157e+07
7.91067e+06
1.88186e+07
2.25986e+07
1.63014e+07
1.21438e+07
2.312e+07
3.05387e+07
3.30535e+07
3.23848e+07
3.00228e+07
2.71376e+07
2.46994e+07
2.35077e+07
2.40179e+07
2.61621e+07
2.95007e+07
3.35437e+07
3.79138e+07
4.23557e+07
4.67001e+07