/*--------------------------------*- C++ -*----------------------------------*\
| =========                 |                                                 |
| \\      /  F ield         | OpenFOAM: The Open Source CFD Toolbox           |
|  \\    /   O peration     | Version:  v2012                                 |
|   \\  /    A nd           | Website:  www.openfoam.com                      |
|    \\/     M anipulation  |                                                 |
\*---------------------------------------------------------------------------*/
FoamFile
{
    version     2.0;
    format      ascii;
    class       pointScalarField;
    location    "1";
    object      pEpsilonEq;
}
// * * * * * * * * * * * * * * * * * * * * * * * * * * * * * * * * * * * * * //

dimensions      [0 0 0 0 0 0 0];


internalField   nonuniform List<scalar> 
35937
(
0
0
0
0
0
0
0
0
0
0
0
0
0
0
0
0
0
0
0
0
0
0
0
0
0
0
0
0
0
0
0
0
0
0
0
0
0
0
0
0
0
0
0
0
0
0
0
0
0
0
0
0
0
0
0
0
0
0
0
0
0
0
0
0
0
0
0
0
0
0
0
0
0
0
0
0
0
0
0
0
0
0
0
0
0
0
0
0
0
0
0
0
0
0
0
0
0
0
0
0
0
0
0
0
0
0
0
0
0
0
0
0
0
0
0
0
0
0
0
0
0
0
0
0
0
0
0
0
0
0
0
0
0
0
0
0
0
0
0
0
0
0
0
0
0
0
0
0
0
0
0
0
0
0
0
0
0
0
0
0
0
0
0
0
0
0
0
0
0
0
0
0
0
0
0
0
0
0
0
0
0
0
0
0
0
0
0
0
0
0
0
0
0
0
0
0
0
0
0
0
0
0
0
0
0
0
0
0
0
0
0
0
0
0
0
0
0
0
0
0
0
0
0
0
0
0
0
0
0
0
0
0
0
0
0
0
0
0
0
0
0
0
0
0
0
0
0
0
0
0
0
0
0
0
0
0
0
0
0
0
0
0
0
0
0
0
0
0
0
0
0
0
0
0
0
0
0
0
0
0
0
0
0
0
0
0
0
0
0
0
0
0
0
0
0
0
0
0
0
0
0
0
0
0
0
0
0
0
0
0
0
0
0
0
0
0
0
0
0
0
0
0
0
0
0
0
0
0
0
0
0
0
0
0
0
0
0
0
0
0
0
0
0
0
0
0
0
0
0
0
0
0
0
0
0
0
0
0
0
0
0
0
0
0
0
0
0
0
0
0
0
0
0
0
0
0
0
0
0
0
2.67706e+07
3.6319e+07
3.69917e+07
3.30081e+07
2.72091e+07
2.11869e+07
1.50511e+07
6.93608e+06
1.39011e+06
3.0254e+06
4.32551e+06
6.67624e+06
1.4302e+07
2.62258e+07
4.03066e+07
5.37122e+07
6.34719e+07
6.69477e+07
6.24224e+07
4.95977e+07
2.98796e+07
8.7649e+06
2.27246e+07
4.46577e+07
6.061e+07
6.78249e+07
6.54373e+07
5.44272e+07
3.75726e+07
1.93584e+07
6.09274e+06
3.45208e+07
5.17849e+07
5.87462e+07
5.82384e+07
5.28328e+07
4.48714e+07
3.58436e+07
2.55717e+07
1.17256e+07
1.85856e+06
4.63434e+06
6.6683e+06
6.80125e+06
1.40113e+07
2.89573e+07
4.76307e+07
6.70573e+07
8.30706e+07
9.19537e+07
9.09003e+07
7.87405e+07
5.64509e+07
2.79524e+07
1.71418e+07
4.42726e+07
6.89333e+07
8.3571e+07
8.57034e+07
7.53646e+07
5.49674e+07
2.89259e+07
2.24349e+07
3.76231e+07
5.03967e+07
5.86837e+07
6.13249e+07
5.87786e+07
5.23597e+07
4.31787e+07
3.11063e+07
1.39599e+07
2.80091e+06
8.33461e+06
1.2448e+07
1.19332e+07
9.36227e+06
1.69764e+07
3.44329e+07
5.49345e+07
7.51141e+07
9.05421e+07
9.76545e+07
9.40898e+07
7.93255e+07
5.51659e+07
2.70535e+07
2.15684e+07
4.59796e+07
6.59241e+07
7.36784e+07
6.60384e+07
4.17427e+07
1.74552e+07
1.6019e+07
1.56471e+07
2.72864e+07
4.0113e+07
4.86733e+07
5.1619e+07
4.92355e+07
4.22634e+07
3.082e+07
1.35335e+07
4.55301e+06
1.25547e+07
1.93552e+07
2.21492e+07
1.98982e+07
1.32767e+07
1.34915e+07
3.00977e+07
5.0925e+07
7.13718e+07
8.69969e+07
9.44083e+07
9.15119e+07
7.80016e+07
5.57348e+07
2.9086e+07
1.30313e+07
2.81747e+07
3.79206e+07
3.03463e+07
3.63762e+07
4.73144e+07
4.21071e+07
2.74252e+07
1.04128e+07
1.31648e+07
2.6377e+07
3.48066e+07
3.72724e+07
3.40288e+07
2.54081e+07
1.12377e+07
6.13825e+06
1.49804e+07
2.36259e+07
2.98196e+07
3.20767e+07
2.89875e+07
2.01079e+07
1.00711e+07
2.17631e+07
4.27281e+07
6.35231e+07
7.97458e+07
8.81746e+07
8.69453e+07
7.59292e+07
5.70766e+07
3.44721e+07
1.50457e+07
9.31586e+06
3.71901e+07
5.80151e+07
6.61653e+07
6.29708e+07
5.10471e+07
3.39468e+07
1.54921e+07
2.62176e+06
1.38199e+07
2.05445e+07
2.16018e+07
1.73245e+07
8.46781e+06
6.51529e+06
1.43299e+07
2.32299e+07
3.14065e+07
3.74427e+07
3.96536e+07
3.65185e+07
2.74484e+07
1.45326e+07
1.56807e+07
3.44028e+07
5.39551e+07
6.93702e+07
7.75526e+07
7.67774e+07
6.68844e+07
4.95264e+07
2.77178e+07
1.71839e+07
3.52689e+07
5.19097e+07
6.26408e+07
6.53829e+07
6.02563e+07
4.90104e+07
3.4385e+07
1.95229e+07
8.18995e+06
7.61476e+06
1.09921e+07
1.08298e+07
6.44646e+06
5.27912e+06
1.07348e+07
1.83256e+07
2.65749e+07
3.44252e+07
4.0392e+07
4.27843e+07
4.01848e+07
3.21057e+07
2.0041e+07
1.33157e+07
2.50888e+07
4.03301e+07
5.17355e+07
5.56796e+07
4.96047e+07
3.16992e+07
8.8359e+06
5.28424e+06
1.47965e+07
3.08452e+07
4.46359e+07
5.31108e+07
5.51246e+07
5.10628e+07
4.24912e+07
3.17232e+07
2.14137e+07
1.42346e+07
1.14035e+07
9.92012e+06
5.19815e+06
2.94568e+06
5.83881e+06
1.11139e+07
1.77229e+07
2.51463e+07
3.24084e+07
3.81174e+07
4.07876e+07
3.92656e+07
3.32277e+07
2.37497e+07
1.44722e+07
1.43553e+07
2.02723e+07
2.28651e+07
1.70511e+07
1.83924e+07
2.26768e+07
1.77798e+07
9.1254e+06
1.23945e+07
2.4422e+07
3.47724e+07
4.10507e+07
4.25828e+07
3.97759e+07
3.38669e+07
2.66131e+07
1.98715e+07
1.48107e+07
1.06352e+07
4.02839e+06
2.06597e+06
3.74323e+06
5.81762e+06
9.19722e+06
1.41666e+07
2.01797e+07
2.63054e+07
3.14218e+07
3.44421e+07
3.45941e+07
3.17198e+07
2.65447e+07
2.04752e+07
1.59261e+07
1.15347e+07
1.0224e+07
1.60677e+07
1.796e+07
1.59914e+07
1.13075e+07
7.91319e+06
1.22042e+07
1.95152e+07
2.57178e+07
2.93746e+07
3.00257e+07
2.79029e+07
2.37828e+07
1.87466e+07
1.37486e+07
8.91966e+06
3.32131e+06
3.9387e+06
5.75795e+06
6.38716e+06
6.42867e+06
7.20417e+06
9.65801e+06
1.34112e+07
1.76514e+07
2.16428e+07
2.47369e+07
2.63677e+07
2.60062e+07
2.30564e+07
1.59056e+07
7.49329e+06
9.35642e+06
8.08522e+06
5.47538e+06
2.54158e+06
2.28392e+06
5.56302e+06
9.32021e+06
1.3059e+07
1.6335e+07
1.86602e+07
1.96064e+07
1.8948e+07
1.6746e+07
1.3371e+07
9.44897e+06
5.80596e+06
4.07754e+06
5.51076e+06
7.33133e+06
8.35479e+06
8.32181e+06
7.42504e+06
6.24609e+06
5.68064e+06
6.35567e+06
8.00227e+06
1.00371e+07
1.17965e+07
1.21263e+07
8.99185e+06
1.29122e+07
1.79168e+07
2.02316e+07
2.11891e+07
2.08001e+07
1.95043e+07
1.77391e+07
1.61074e+07
1.50977e+07
1.48051e+07
1.49204e+07
1.49856e+07
1.46591e+07
1.37449e+07
1.21848e+07
1.00856e+07
7.8326e+06
6.12508e+06
5.45902e+06
7.10759e+06
9.69241e+06
1.20026e+07
1.31331e+07
1.25718e+07
1.02569e+07
6.60206e+06
2.95789e+06
4.11855e+06
7.18568e+06
8.42148e+06
6.45354e+06
7.11091e+06
1.04182e+07
1.40611e+07
1.87401e+07
2.41628e+07
2.97533e+07
3.36934e+07
3.52641e+07
3.42283e+07
3.10177e+07
2.65224e+07
2.1837e+07
1.79654e+07
1.54129e+07
1.39823e+07
1.30566e+07
1.21211e+07
1.08791e+07
9.05656e+06
6.92855e+06
9.81468e+06
1.41879e+07
1.85045e+07
2.17044e+07
2.27701e+07
2.09913e+07
1.62314e+07
9.16152e+06
2.55654e+06
6.44928e+06
7.87442e+06
1.45658e+07
2.15377e+07
2.22114e+07
1.85054e+07
1.42141e+07
1.64185e+07
2.52133e+07
3.58188e+07
4.40355e+07
4.8275e+07
4.80236e+07
4.38302e+07
3.7e+07
2.92428e+07
2.23319e+07
1.76135e+07
1.53007e+07
1.42575e+07
1.31114e+07
1.10358e+07
9.11142e+06
1.31654e+07
1.88049e+07
2.481e+07
3.03236e+07
3.40479e+07
3.46246e+07
3.11657e+07
2.37786e+07
1.40855e+07
5.5882e+06
1.9462e+07
3.26095e+07
4.15509e+07
4.503e+07
4.23684e+07
3.40712e+07
2.24283e+07
1.5651e+07
2.44231e+07
3.90706e+07
5.09414e+07
5.75752e+07
5.8306e+07
5.38524e+07
4.58926e+07
3.65737e+07
2.80194e+07
2.17154e+07
1.78775e+07
1.54542e+07
1.33133e+07
1.22116e+07
1.55133e+07
2.07168e+07
2.70932e+07
3.40672e+07
4.02621e+07
4.37087e+07
4.24307e+07
3.50897e+07
2.14225e+07
1.07312e+07
1.75977e+07
3.06172e+07
4.51665e+07
5.64438e+07
6.13934e+07
5.85598e+07
4.81655e+07
3.22095e+07
1.70669e+07
2.15512e+07
3.91024e+07
5.39545e+07
6.2722e+07
6.46892e+07
6.07559e+07
5.28772e+07
4.34179e+07
3.45066e+07
2.74024e+07
2.22342e+07
1.83281e+07
1.52041e+07
1.53032e+07
1.80083e+07
2.27845e+07
2.92107e+07
3.59508e+07
4.03866e+07
3.88875e+07
2.72156e+07
2.18434e+07
2.49774e+07
1.57058e+07
1.04588e+07
2.9599e+07
5.04131e+07
6.63177e+07
7.40374e+07
7.20407e+07
6.06592e+07
4.19944e+07
2.10145e+07
1.70351e+07
3.60677e+07
5.31687e+07
6.3751e+07
6.71229e+07
6.43199e+07
5.74002e+07
4.86739e+07
3.99954e+07
3.2201e+07
2.49087e+07
1.66635e+07
1.17737e+07
1.05514e+07
1.20753e+07
1.5487e+07
1.98517e+07
2.22949e+07
1.77459e+07
3.57316e+07
5.35732e+07
5.73006e+07
4.84603e+07
2.96528e+07
9.10135e+06
2.81166e+07
5.3922e+07
7.36689e+07
8.38119e+07
8.279e+07
7.10692e+07
5.0918e+07
2.66535e+07
1.22551e+07
3.05324e+07
4.90208e+07
6.09071e+07
6.55338e+07
6.39553e+07
5.80979e+07
4.99082e+07
4.05834e+07
2.99009e+07
1.57309e+07
5.45571e+06
4.44406e+06
7.91142e+06
8.58799e+06
7.52021e+06
6.48696e+06
3.18234e+07
5.49243e+07
7.18386e+07
7.98762e+07
7.70464e+07
6.30135e+07
3.94731e+07
1.2346e+07
2.68794e+07
5.58663e+07
7.82439e+07
9.01797e+07
9.01073e+07
7.86102e+07
5.8099e+07
3.26353e+07
1.01492e+07
2.31811e+07
4.19663e+07
5.42945e+07
5.94816e+07
5.84436e+07
5.27262e+07
4.35677e+07
3.09902e+07
1.28425e+07
2.50417e+06
1.24542e+07
1.8863e+07
2.01724e+07
1.51987e+07
1.45104e+07
2.95093e+07
4.91733e+07
6.90801e+07
8.43552e+07
9.1077e+07
8.68106e+07
7.10483e+07
4.54811e+07
1.53939e+07
2.51845e+07
5.57344e+07
7.95401e+07
9.26047e+07
9.34191e+07
8.26723e+07
6.28598e+07
3.79031e+07
1.29891e+07
1.45857e+07
3.22713e+07
4.38032e+07
4.83505e+07
4.65904e+07
3.95636e+07
2.76635e+07
1.00371e+07
7.72407e+06
1.68647e+07
2.1106e+07
1.68928e+07
1.18558e+07
1.18973e+07
1.19628e+07
2.77139e+07
4.97398e+07
7.1236e+07
8.74404e+07
9.45834e+07
9.03552e+07
7.43811e+07
4.84638e+07
1.75183e+07
2.27918e+07
5.33816e+07
7.74287e+07
9.09411e+07
9.25394e+07
8.30045e+07
6.4843e+07
4.1812e+07
1.82576e+07
5.44496e+06
2.02603e+07
2.97774e+07
3.26741e+07
2.95538e+07
2.12612e+07
9.17903e+06
9.15965e+06
1.35216e+07
1.1813e+07
1.98483e+07
2.8749e+07
2.87765e+07
2.0753e+07
1.0401e+07
2.30335e+07
4.60996e+07
6.8332e+07
8.49889e+07
9.25007e+07
8.87462e+07
7.34853e+07
4.85603e+07
1.84965e+07
1.98563e+07
4.90427e+07
7.21744e+07
8.54451e+07
8.76661e+07
7.9687e+07
6.39424e+07
4.39367e+07
2.35564e+07
5.83673e+06
7.71642e+06
1.50674e+07
1.70164e+07
1.43962e+07
8.70238e+06
6.88668e+06
6.17746e+06
1.73741e+07
2.92713e+07
3.7208e+07
3.99584e+07
3.64043e+07
2.62937e+07
1.25009e+07
1.84205e+07
4.03691e+07
6.18442e+07
7.79777e+07
8.5435e+07
8.232e+07
6.8502e+07
4.57532e+07
1.81554e+07
1.67515e+07
4.31815e+07
6.42938e+07
7.66198e+07
7.92082e+07
7.29334e+07
6.00576e+07
4.3725e+07
2.73715e+07
1.41273e+07
8.12983e+06
9.72852e+06
1.0413e+07
6.62441e+06
2.95918e+06
8.95684e+06
1.78408e+07
2.67783e+07
3.47055e+07
4.02048e+07
4.17173e+07
3.79282e+07
2.84111e+07
1.50919e+07
1.46822e+07
3.32402e+07
5.24231e+07
6.69779e+07
7.38793e+07
7.14669e+07
5.9704e+07
4.02144e+07
1.66197e+07
1.40027e+07
3.62851e+07
5.4317e+07
6.49795e+07
6.75449e+07
6.28494e+07
5.28583e+07
4.02574e+07
2.79341e+07
1.86833e+07
1.36036e+07
1.0305e+07
3.73886e+06
2.69559e+06
6.5573e+06
1.17874e+07
1.81289e+07
2.50604e+07
3.16488e+07
3.64867e+07
3.8105e+07
3.53676e+07
2.78454e+07
1.70888e+07
1.29414e+07
2.54753e+07
4.07946e+07
5.27255e+07
5.85729e+07
5.69713e+07
4.78813e+07
3.27429e+07
1.48672e+07
1.23024e+07
2.87366e+07
4.2636e+07
5.0933e+07
5.29632e+07
4.94136e+07
4.18443e+07
3.2309e+07
2.28571e+07
1.52265e+07
8.47442e+06
1.8231e+06
4.19943e+06
5.90695e+06
7.36128e+06
9.78078e+06
1.40126e+07
1.93677e+07
2.472e+07
2.90573e+07
3.10509e+07
2.99097e+07
2.54106e+07
1.8433e+07
1.37809e+07
1.84424e+07
2.79573e+07
3.64195e+07
4.09732e+07
4.05141e+07
3.49583e+07
2.53747e+07
1.47741e+07
1.22485e+07
2.10137e+07
2.9782e+07
3.50492e+07
3.60192e+07
3.28719e+07
2.66025e+07
1.8378e+07
9.12944e+06
3.83952e+06
2.6246e+06
5.2559e+06
7.0039e+06
6.98835e+06
6.60756e+06
7.37406e+06
9.1376e+06
1.26505e+07
1.65481e+07
2.01379e+07
2.27251e+07
2.33777e+07
2.235e+07
1.94566e+07
1.55521e+07
1.39182e+07
1.59908e+07
2.0195e+07
2.40271e+07
2.55615e+07
2.44573e+07
2.08173e+07
1.63921e+07
1.35419e+07
1.43295e+07
1.74303e+07
1.92827e+07
1.86043e+07
1.50672e+07
8.69166e+06
3.84284e+06
3.53516e+06
3.5941e+06
5.1551e+06
6.14455e+06
7.02494e+06
7.48414e+06
5.55337e+06
5.09993e+06
6.18038e+06
8.50667e+06
1.11931e+07
1.32702e+07
1.65505e+07
1.84039e+07
1.84038e+07
1.75713e+07
1.45975e+07
9.44829e+06
6.65845e+06
8.6317e+06
1.3514e+07
1.70322e+07
1.90768e+07
1.86228e+07
1.61358e+07
1.39602e+07
1.18224e+07
1.03219e+07
1.00281e+07
7.74136e+06
2.27404e+06
2.80852e+06
3.33579e+06
3.64395e+06
7.43122e+06
9.82465e+06
1.00455e+07
1.20924e+07
1.41712e+07
1.17885e+07
1.52554e+07
1.51027e+07
1.2463e+07
1.50552e+07
1.39966e+07
1.1744e+07
1.08321e+07
9.33827e+06
5.41227e+06
2.71438e+06
6.28641e+06
1.06159e+07
1.17264e+07
1.47884e+07
1.44303e+07
1.29458e+07
1.35791e+07
1.19394e+07
9.64382e+06
1.05309e+07
7.09387e+06
4.78652e+06
8.6639e+06
8.76234e+06
6.64337e+06
7.95051e+06
5.13814e+06
4.61895e+06
2.27135e+06
1.89314e+06
2.5227e+06
2.93395e+06
3.95608e+06
2.25481e+06
4.20593e+06
6.04976e+06
3.51528e+06
6.01987e+06
5.73146e+06
2.99355e+06
3.66474e+06
2.03214e+06
4.13667e+06
2.41457e+06
3.70295e+06
6.66764e+06
4.93641e+06
6.83021e+06
8.51596e+06
6.7977e+06
8.46035e+06
7.00104e+06
3.2863e+06
3.07487e+06
3.39448e+06
1.77462e+06
2.24124e+06
2.56144e+06
2.53304e+06
2.06028e+06
2.69442e+06
3.08216e+06
5.12985e+06
5.56774e+06
6.40984e+06
8.4165e+06
7.7503e+06
7.85156e+06
9.92625e+06
9.18997e+06
9.16745e+06
1.08713e+07
9.93062e+06
9.6692e+06
9.64209e+06
9.4166e+06
8.31352e+06
7.56715e+06
4.39736e+06
6.24795e+06
3.22593e+06
1.27764e+06
4.90372e+06
2.98266e+07
4.09692e+07
4.72391e+07
5.17183e+07
5.52459e+07
5.80728e+07
6.02736e+07
6.18678e+07
6.28583e+07
6.32452e+07
6.30306e+07
6.22208e+07
6.08263e+07
5.88623e+07
5.63486e+07
5.33092e+07
4.97723e+07
4.57709e+07
4.13435e+07
3.65368e+07
3.14096e+07
2.60416e+07
2.05559e+07
1.51701e+07
1.02463e+07
5.864e+06
3.40218e+06
8.78085e+06
1.38252e+07
1.68161e+07
1.54045e+07
3.83892e+07
5.42942e+07
6.37454e+07
7.07024e+07
7.63089e+07
8.09169e+07
8.46321e+07
8.74802e+07
8.94632e+07
9.05781e+07
9.08244e+07
9.02064e+07
8.8734e+07
8.64232e+07
8.32958e+07
7.93787e+07
7.47043e+07
6.93093e+07
6.32341e+07
5.65177e+07
4.91896e+07
4.12613e+07
3.27442e+07
2.37719e+07
1.50115e+07
9.01016e+06
7.79329e+06
1.19264e+07
1.84488e+07
2.34525e+07
2.22658e+07
2.40208e+07
3.69762e+07
4.53992e+07
5.17785e+07
5.70267e+07
6.14695e+07
6.52158e+07
6.82959e+07
7.07125e+07
7.24607e+07
7.35351e+07
7.39325e+07
7.36526e+07
7.26986e+07
7.10767e+07
6.8796e+07
6.58688e+07
6.231e+07
5.81324e+07
5.33288e+07
4.78302e+07
4.14398e+07
3.37907e+07
2.45435e+07
1.63773e+07
1.56308e+07
1.42832e+07
1.29016e+07
1.42362e+07
1.69068e+07
1.58966e+07
1.88768e+07
2.54995e+07
2.87405e+07
3.05361e+07
3.16425e+07
3.24092e+07
3.30007e+07
3.34934e+07
3.39208e+07
3.42959e+07
3.46211e+07
3.48925e+07
3.51013e+07
3.5234e+07
3.52727e+07
3.5197e+07
3.49889e+07
3.46394e+07
3.41455e+07
3.34662e+07
3.23968e+07
3.03382e+07
2.59631e+07
1.84989e+07
2.00436e+07
2.3944e+07
2.53629e+07
2.42334e+07
2.13544e+07
1.70744e+07
1.08131e+07
4.13773e+07
5.3369e+07
5.76726e+07
5.91805e+07
5.93042e+07
5.85449e+07
5.71149e+07
5.51204e+07
5.26256e+07
4.96788e+07
4.6324e+07
4.2607e+07
3.85785e+07
3.4296e+07
2.98266e+07
2.52559e+07
2.07238e+07
1.65422e+07
1.34766e+07
1.28205e+07
1.47687e+07
1.69428e+07
1.44193e+07
1.45457e+07
2.21566e+07
3.05084e+07
3.67754e+07
4.05227e+07
4.17333e+07
3.97869e+07
3.13698e+07
4.21781e+07
5.66119e+07
6.27271e+07
6.56561e+07
6.69961e+07
6.73171e+07
6.68493e+07
6.56975e+07
6.39171e+07
6.15435e+07
5.86049e+07
5.51283e+07
5.11402e+07
4.66649e+07
4.17168e+07
3.62882e+07
3.03376e+07
2.38004e+07
1.66829e+07
9.43448e+06
5.35075e+06
8.2971e+06
5.73073e+06
8.40945e+06
1.86013e+07
2.89926e+07
3.78169e+07
4.44372e+07
4.83278e+07
4.80989e+07
3.87796e+07
1.90043e+07
2.86121e+07
3.37723e+07
3.68424e+07
3.88151e+07
4.01074e+07
4.09005e+07
4.12753e+07
4.12678e+07
4.08934e+07
4.01577e+07
3.90614e+07
3.76004e+07
3.57604e+07
3.35024e+07
3.07364e+07
2.729e+07
2.2903e+07
1.72843e+07
1.01761e+07
6.45671e+06
9.36109e+06
7.43634e+06
2.8739e+06
7.65663e+06
1.5499e+07
2.26239e+07
2.82198e+07
3.16111e+07
3.15232e+07
2.45208e+07
1.01326e+07
8.92348e+06
6.47884e+06
4.23474e+06
2.74599e+06
2.91683e+06
4.3611e+06
6.1429e+06
7.97049e+06
9.76e+06
1.1472e+07
1.30755e+07
1.45356e+07
1.57994e+07
1.6767e+07
1.72446e+07
1.69067e+07
1.53454e+07
1.21296e+07
6.84721e+06
9.81855e+06
1.39485e+07
1.55214e+07
1.49682e+07
1.34171e+07
1.18544e+07
1.07725e+07
1.00588e+07
9.16085e+06
7.40083e+06
4.69903e+06
2.11255e+07
2.43998e+07
2.37202e+07
2.21359e+07
2.03674e+07
1.85729e+07
1.67762e+07
1.49869e+07
1.32409e+07
1.16194e+07
1.02663e+07
9.3884e+06
9.19199e+06
9.72496e+06
1.07418e+07
1.16798e+07
1.16876e+07
9.90896e+06
5.76468e+06
5.05695e+06
9.7827e+06
1.50909e+07
1.92162e+07
2.18795e+07
2.32768e+07
2.37297e+07
2.35633e+07
2.30752e+07
2.24767e+07
2.15766e+07
1.8232e+07
1.14789e+07
1.42406e+07
1.43499e+07
1.36499e+07
1.27265e+07
1.17668e+07
1.08297e+07
9.94299e+06
9.1472e+06
8.51542e+06
8.15579e+06
8.18767e+06
8.69208e+06
9.64793e+06
1.08065e+07
1.13669e+07
9.60732e+06
4.9257e+06
4.26981e+06
4.875e+06
7.05268e+06
1.04929e+07
1.39232e+07
1.66882e+07
1.8603e+07
1.97117e+07
2.01623e+07
2.01343e+07
1.97292e+07
1.86277e+07
1.486e+07
7.852e+06
9.35847e+06
9.9227e+06
1.01975e+07
1.02415e+07
1.00758e+07
9.72671e+06
9.2195e+06
8.58068e+06
7.84652e+06
7.07437e+06
6.36576e+06
5.93824e+06
6.21821e+06
7.44138e+06
8.40154e+06
6.47618e+06
5.25067e+06
6.20374e+06
6.84823e+06
6.77418e+06
6.62694e+06
6.90717e+06
7.6118e+06
8.45228e+06
9.14486e+06
9.48774e+06
9.34932e+06
8.66426e+06
7.44224e+06
5.55695e+06
1.39333e+07
1.77231e+07
1.90757e+07
1.96541e+07
1.98368e+07
1.97196e+07
1.93348e+07
1.86951e+07
1.78022e+07
1.66473e+07
1.51988e+07
1.33674e+07
1.09754e+07
7.99445e+06
6.10465e+06
7.82205e+06
7.61431e+06
6.90352e+06
7.40043e+06
8.50435e+06
9.38736e+06
9.93546e+06
1.03814e+07
1.09966e+07
1.19082e+07
1.30417e+07
1.41905e+07
1.51155e+07
1.55811e+07
1.52031e+07
1.25056e+07
7.09125e+06
1.11559e+07
1.35391e+07
1.51408e+07
1.63443e+07
1.72939e+07
1.80324e+07
1.85532e+07
1.88216e+07
1.87802e+07
1.83182e+07
1.71482e+07
1.45695e+07
9.55664e+06
6.07523e+06
9.24971e+06
1.05612e+07
1.03818e+07
1.00047e+07
9.93368e+06
1.00259e+07
1.0042e+07
9.92641e+06
9.79719e+06
9.8315e+06
1.01279e+07
1.06215e+07
1.11001e+07
1.12478e+07
1.05605e+07
7.88515e+06
1.67834e+07
2.08302e+07
2.17805e+07
2.17396e+07
2.13491e+07
2.08601e+07
2.03734e+07
1.99035e+07
1.94053e+07
1.87997e+07
1.79527e+07
1.64257e+07
1.28044e+07
5.3216e+06
6.21997e+06
1.07879e+07
1.36515e+07
1.52972e+07
1.65065e+07
1.77011e+07
1.89478e+07
2.01476e+07
2.11879e+07
2.20017e+07
2.25652e+07
2.28706e+07
2.28909e+07
2.25363e+07
2.1582e+07
1.94792e+07
1.46224e+07
2.18947e+07
2.76016e+07
2.86852e+07
2.82037e+07
2.71163e+07
2.57739e+07
2.43126e+07
2.27517e+07
2.1013e+07
1.89681e+07
1.65615e+07
1.37749e+07
1.01433e+07
7.70672e+06
8.27496e+06
1.11081e+07
1.42123e+07
1.7133e+07
1.99838e+07
2.28664e+07
2.57559e+07
2.8547e+07
3.11178e+07
3.33663e+07
3.52187e+07
3.66181e+07
3.74952e+07
3.77097e+07
3.69101e+07
3.41131e+07
2.61171e+07
1.07505e+07
1.57417e+07
1.75832e+07
1.80719e+07
1.80594e+07
1.79214e+07
1.77875e+07
1.75805e+07
1.69726e+07
1.54283e+07
1.28134e+07
1.23725e+07
1.55326e+07
1.74734e+07
1.82916e+07
1.86771e+07
1.89372e+07
1.92009e+07
1.95949e+07
2.02368e+07
2.11727e+07
2.23548e+07
2.36702e+07
2.49849e+07
2.61741e+07
2.71259e+07
2.77185e+07
2.7762e+07
2.68653e+07
2.41105e+07
1.7187e+07
2.48123e+07
2.96025e+07
2.90553e+07
2.65458e+07
2.31786e+07
1.94736e+07
1.58414e+07
1.27235e+07
1.02962e+07
7.90837e+06
8.39156e+06
1.61365e+07
2.36024e+07
2.92784e+07
3.3411e+07
3.64065e+07
3.8543e+07
3.99939e+07
4.08853e+07
4.13211e+07
4.13843e+07
4.11328e+07
4.05981e+07
3.97876e+07
3.86865e+07
3.7258e+07
3.54317e+07
3.30735e+07
2.99116e+07
2.53578e+07
1.78658e+07
4.05911e+07
4.94039e+07
4.90369e+07
4.52621e+07
3.98316e+07
3.33317e+07
2.5998e+07
1.80787e+07
1.01671e+07
5.68297e+06
9.95637e+06
1.83714e+07
2.74811e+07
3.60206e+07
4.36114e+07
5.02077e+07
5.58581e+07
6.06296e+07
6.45881e+07
6.7792e+07
7.02888e+07
7.2112e+07
7.32793e+07
7.37917e+07
7.36307e+07
7.27503e+07
7.10534e+07
6.8329e+07
6.40703e+07
5.68784e+07
4.20894e+07
3.52611e+07
4.56801e+07
4.74148e+07
4.55303e+07
4.16907e+07
3.63149e+07
2.92997e+07
2.05157e+07
1.31528e+07
1.37151e+07
1.49574e+07
1.80487e+07
2.37188e+07
3.07205e+07
3.79593e+07
4.48801e+07
5.12379e+07
5.69338e+07
6.19368e+07
6.62452e+07
6.98674e+07
7.28103e+07
7.50728e+07
7.66392e+07
7.74712e+07
7.7492e+07
7.65484e+07
7.43187e+07
7.00708e+07
6.19581e+07
4.46625e+07
1.44803e+07
2.2887e+07
2.70615e+07
2.88856e+07
2.91284e+07
2.76216e+07
2.33283e+07
1.63155e+07
1.92103e+07
2.38605e+07
2.62311e+07
2.68662e+07
2.6877e+07
2.70346e+07
2.76796e+07
2.88432e+07
3.04029e+07
3.21977e+07
3.40865e+07
3.59646e+07
3.77591e+07
3.94179e+07
4.08967e+07
4.21459e+07
4.3096e+07
4.36349e+07
4.35673e+07
4.25326e+07
3.98316e+07
3.40611e+07
2.2419e+07
1.33589e+07
1.22405e+07
9.76389e+06
9.78702e+06
1.2529e+07
1.50302e+07
1.26483e+07
1.46035e+07
2.3467e+07
3.23488e+07
3.92176e+07
4.40121e+07
4.71178e+07
4.89432e+07
4.98204e+07
4.99967e+07
4.96469e+07
4.88866e+07
4.77865e+07
4.63857e+07
4.47049e+07
4.27563e+07
4.05518e+07
3.81067e+07
3.54391e+07
3.25623e+07
2.94658e+07
2.60807e+07
2.22387e+07
1.77031e+07
1.22066e+07
2.25175e+07
2.32128e+07
1.77152e+07
1.01999e+07
4.1785e+06
6.91183e+06
4.53175e+06
9.87641e+06
2.11016e+07
3.23122e+07
4.21778e+07
5.0364e+07
5.69257e+07
6.20596e+07
6.59916e+07
6.89266e+07
7.10279e+07
7.24116e+07
7.3151e+07
7.32856e+07
7.28315e+07
7.17934e+07
7.01729e+07
6.79757e+07
6.52141e+07
6.19035e+07
5.80467e+07
5.35884e+07
4.82901e+07
4.13309e+07
2.9679e+07
1.91427e+07
2.22461e+07
1.89777e+07
1.20755e+07
7.16799e+06
9.80783e+06
7.51777e+06
3.26418e+06
9.5057e+06
1.84615e+07
2.70242e+07
3.46155e+07
4.10847e+07
4.64658e+07
5.08708e+07
5.44322e+07
5.72721e+07
5.94871e+07
6.11437e+07
6.22804e+07
6.29137e+07
6.30456e+07
6.26705e+07
6.17796e+07
6.03598e+07
5.83833e+07
5.57779e+07
5.23575e+07
4.76589e+07
4.05229e+07
2.783e+07
9.69578e+06
1.34947e+07
1.28088e+07
7.83677e+06
1.15929e+07
1.62411e+07
1.78151e+07
1.68396e+07
1.4588e+07
1.22933e+07
1.0919e+07
1.08861e+07
1.19051e+07
1.3425e+07
1.5072e+07
1.66782e+07
1.81927e+07
1.96151e+07
2.09574e+07
2.22264e+07
2.3419e+07
2.45202e+07
2.55038e+07
2.63334e+07
2.69579e+07
2.72989e+07
2.72237e+07
2.64945e+07
2.4672e+07
2.09339e+07
1.37287e+07
2.86685e+06
5.62287e+06
5.62067e+06
6.55006e+06
1.27086e+07
1.9244e+07
2.4208e+07
2.7321e+07
2.8852e+07
2.91974e+07
2.87275e+07
2.77468e+07
2.64854e+07
2.51024e+07
2.36931e+07
2.22915e+07
2.08874e+07
1.94486e+07
1.79335e+07
1.63064e+07
1.45496e+07
1.26645e+07
1.06743e+07
8.62743e+06
6.6116e+06
4.82018e+06
3.70004e+06
3.81797e+06
4.84131e+06
5.81649e+06
5.52647e+06
1.83454e+06
4.18498e+06
5.86756e+06
6.15346e+06
9.54367e+06
1.48681e+07
1.9956e+07
2.40119e+07
2.68863e+07
2.86945e+07
2.96531e+07
3.00024e+07
2.99545e+07
2.96737e+07
2.92732e+07
2.88029e+07
2.8264e+07
2.7633e+07
2.68683e+07
2.59304e+07
2.4798e+07
2.34665e+07
2.19566e+07
2.03065e+07
1.8571e+07
1.68419e+07
1.52371e+07
1.38593e+07
1.26922e+07
1.12916e+07
8.25049e+06
3.43742e+06
6.84893e+06
8.3611e+06
7.61898e+06
5.94642e+06
5.46304e+06
6.92555e+06
8.96253e+06
1.07064e+07
1.19108e+07
1.25705e+07
1.27949e+07
1.27087e+07
1.24247e+07
1.20832e+07
1.1779e+07
1.15446e+07
1.141e+07
1.13506e+07
1.13121e+07
1.12772e+07
1.1235e+07
1.11999e+07
1.11871e+07
1.1181e+07
1.11897e+07
1.11936e+07
1.10697e+07
1.06003e+07
9.28741e+06
6.23102e+06
4.00297e+06
7.1164e+06
9.44752e+06
1.05391e+07
1.05539e+07
9.97697e+06
9.29329e+06
8.8463e+06
8.81365e+06
9.18658e+06
9.77743e+06
1.04143e+07
1.09847e+07
1.13387e+07
1.14741e+07
1.14439e+07
1.11841e+07
1.0757e+07
1.02499e+07
9.5859e+06
8.83405e+06
8.1093e+06
7.3696e+06
6.70974e+06
6.1737e+06
5.70048e+06
5.35585e+06
5.04569e+06
4.64324e+06
3.98842e+06
2.90114e+06
2.50176e+06
4.17234e+06
6.30269e+06
8.06161e+06
9.20716e+06
9.80672e+06
1.00696e+07
1.02611e+07
1.05762e+07
1.11161e+07
1.17883e+07
1.25147e+07
1.32626e+07
1.37813e+07
1.40678e+07
1.42466e+07
1.40739e+07
1.36335e+07
1.31513e+07
1.23184e+07
1.12586e+07
1.029e+07
9.01363e+06
7.60308e+06
6.32381e+06
4.76073e+06
3.10735e+06
1.68761e+06
323005
1.27715e+06
2.74698e+06
5.23782e+06
5.31683e+06
4.34197e+06
3.9748e+06
3.7683e+06
3.6821e+06
3.97622e+06
4.11047e+06
4.11007e+06
4.17278e+06
4.29958e+06
4.45068e+06
4.50679e+06
4.57057e+06
4.61788e+06
4.53285e+06
4.58399e+06
4.72068e+06
4.64286e+06
4.98711e+06
5.53467e+06
5.36584e+06
6.04346e+06
7.00772e+06
6.96476e+06
7.87112e+06
9.12433e+06
8.85266e+06
9.57906e+06
1.04737e+07
8.33839e+06
3.55373e+06
3.55492e+06
4.15227e+06
5.32507e+06
4.38145e+06
4.39282e+06
5.56012e+06
4.25775e+06
4.29165e+06
5.85998e+06
4.63446e+06
4.74009e+06
6.40477e+06
4.96999e+06
4.86136e+06
6.60966e+06
4.86221e+06
4.51327e+06
6.32841e+06
4.27625e+06
3.72412e+06
5.59139e+06
3.53872e+06
3.15988e+06
4.94089e+06
3.14847e+06
3.01298e+06
4.41485e+06
3.00618e+06
3.07282e+06
4.22063e+06
3.19942e+06
3.28756e+06
3.84265e+06
4.90456e+06
4.06996e+06
4.02845e+06
5.10738e+06
3.94402e+06
3.93827e+06
5.41446e+06
4.36634e+06
4.43443e+06
6.00102e+06
4.7261e+06
4.54497e+06
6.15937e+06
4.56276e+06
4.12994e+06
5.79405e+06
3.89982e+06
3.28716e+06
4.9834e+06
3.12542e+06
2.78957e+06
4.33131e+06
2.86018e+06
2.91892e+06
3.91334e+06
2.95452e+06
3.21369e+06
3.72132e+06
3.16388e+06
3.54406e+06
5.16765e+06
4.13754e+06
3.63503e+06
5.67692e+06
4.27899e+06
3.23081e+06
5.01919e+06
3.75051e+06
2.81977e+06
5.38974e+06
4.37011e+06
3.45878e+06
5.75471e+06
4.72144e+06
3.52487e+06
5.56112e+06
4.61749e+06
3.35092e+06
4.93578e+06
4.50455e+06
3.93472e+06
4.84875e+06
4.9023e+06
4.75631e+06
4.8883e+06
5.00687e+06
4.85533e+06
4.16248e+06
3.43096e+06
3.57991e+06
3.53674e+06
3.51134e+06
2.87761e+06
3.32677e+06
3.8277e+06
3.21144e+06
2.84277e+06
2.38492e+06
420233
5.62356e+06
7.40954e+06
7.96299e+06
8.2441e+06
8.40078e+06
8.16421e+06
7.76082e+06
7.54647e+06
7.03555e+06
5.98548e+06
5.00466e+06
3.65209e+06
1.97925e+06
1.98749e+06
1.86957e+06
411656
1.13413e+06
1.28724e+06
1.21503e+06
1.65196e+06
2.11548e+06
1.60789e+06
2.72542e+06
3.89853e+06
3.34479e+06
3.39028e+06
4.21468e+06
2.48428e+06
1.8776e+06
2.5413e+06
2.96376e+06
3.85822e+06
4.38314e+06
4.66461e+06
4.64177e+06
4.80532e+06
4.03393e+06
3.54843e+06
3.78304e+06
2.24298e+06
1.68542e+06
2.64786e+06
1.80809e+06
2.85649e+06
3.37414e+06
3.47106e+06
4.31018e+06
3.79357e+06
3.89209e+06
4.33002e+06
2.72046e+06
1.86434e+06
2.57649e+06
2.19512e+06
1.12342e+06
887993
2.73852e+06
1.71832e+06
1.74998e+06
1.91273e+06
2.36628e+06
3.83766e+06
1.69951e+06
2.33919e+06
3.54193e+06
1.80046e+06
1.77609e+06
2.69617e+06
1.6415e+06
1.44537e+06
2.27037e+06
2.25465e+06
2.94791e+06
3.92342e+06
4.39139e+06
5.46614e+06
6.31616e+06
5.98535e+06
6.25587e+06
6.61669e+06
5.46462e+06
4.71762e+06
3.9561e+06
2.63526e+06
2.73431e+06
2.69767e+06
1.43732e+06
1.77913e+06
3.0049e+06
3.72642e+06
4.12482e+06
5.41622e+06
5.70443e+06
4.74637e+06
4.89014e+06
6.05154e+06
6.07718e+06
6.58933e+06
6.59455e+06
5.94133e+06
5.74016e+06
5.28894e+06
4.70453e+06
4.26419e+06
3.37004e+06
2.86983e+06
3.33325e+06
3.95739e+06
4.2155e+06
3.82458e+06
4.57416e+06
4.38514e+06
3.31452e+06
3.62893e+06
2.67099e+06
2.70095e+06
3.89655e+06
3.57914e+06
3.15378e+06
4.212e+06
4.19155e+06
3.67746e+06
5.87226e+06
6.43899e+06
5.06403e+06
6.96886e+06
6.83921e+06
4.56112e+06
5.49988e+06
5.62496e+06
4.33557e+06
4.71358e+06
5.19358e+06
4.52395e+06
4.53292e+06
5.23366e+06
5.02507e+06
5.50368e+06
6.48085e+06
5.77707e+06
6.0043e+06
6.83055e+06
5.06677e+06
5.41903e+06
5.70014e+06
2.35335e+06
3.77962e+06
4.83186e+06
2.04001e+06
2.8554e+06
4.53541e+06
2.98293e+06
4.88175e+06
7.17061e+06
5.73104e+06
6.89496e+06
8.23935e+06
5.36146e+06
4.9586e+06
5.46693e+06
3.51767e+06
3.7197e+06
4.62882e+06
4.40749e+06
4.60685e+06
4.88327e+06
5.02305e+06
5.25581e+06
5.39813e+06
5.53739e+06
5.88435e+06
6.15123e+06
5.56811e+06
5.21494e+06
5.83339e+06
4.28272e+06
2.77532e+06
4.27925e+06
3.26547e+06
2.25607e+06
3.56036e+06
3.87143e+06
4.15525e+06
5.98812e+06
6.90126e+06
6.73353e+06
7.688e+06
7.49472e+06
5.392e+06
4.51521e+06
2.89548e+06
3.70516e+06
4.87806e+06
5.10956e+06
5.93292e+06
6.26225e+06
5.66319e+06
6.12615e+06
6.0888e+06
4.83359e+06
4.77168e+06
4.82933e+06
4.2856e+06
4.19805e+06
3.47392e+06
4.76949e+06
4.2565e+06
3.07563e+06
5.05592e+06
4.40194e+06
3.35493e+06
4.89509e+06
4.77439e+06
4.13311e+06
6.13223e+06
6.60007e+06
5.77854e+06
7.90404e+06
8.07291e+06
5.8311e+06
6.52641e+06
5.90332e+06
4.48403e+06
5.00972e+06
5.66359e+06
6.10208e+06
5.68398e+06
5.86921e+06
6.21003e+06
5.31391e+06
5.20835e+06
5.34131e+06
4.63594e+06
4.81273e+06
3.93257e+06
4.23685e+06
6.02754e+06
4.09595e+06
5.25301e+06
6.57202e+06
4.02329e+06
4.59281e+06
5.96289e+06
4.39484e+06
5.44e+06
7.09746e+06
5.93111e+06
7.0625e+06
8.78379e+06
7.2057e+06
6.96621e+06
7.28169e+06
5.05004e+06
4.62322e+06
4.97095e+06
5.52753e+06
5.925e+06
5.31648e+06
5.825e+06
5.73988e+06
4.46032e+06
4.63484e+06
4.44131e+06
2.85475e+06
2.50817e+06
2.24972e+06
3.10926e+06
3.69128e+06
3.20974e+06
5.59881e+06
5.42738e+06
4.37133e+06
5.4161e+06
5.51301e+06
5.25062e+06
6.39811e+06
6.75065e+06
6.28171e+06
6.95587e+06
7.21063e+06
6.10235e+06
5.75787e+06
5.02534e+06
3.35434e+06
3.35098e+06
4.25928e+06
6.71075e+06
7.68492e+06
6.84859e+06
7.58069e+06
7.60877e+06
6.02451e+06
6.13304e+06
5.97744e+06
3.88952e+06
2.85473e+06
1.5408e+06
2.17385e+06
3.2563e+06
3.03977e+06
6.43365e+06
6.47032e+06
5.59119e+06
6.92799e+06
6.7179e+06
6.23949e+06
7.77447e+06
7.66282e+06
6.67542e+06
7.68327e+06
7.50541e+06
6.13347e+06
6.89919e+06
6.47572e+06
4.55207e+06
4.43347e+06
4.53837e+06
5.27569e+06
5.11579e+06
4.91888e+06
5.38738e+06
4.10886e+06
3.23829e+06
3.33731e+06
2.2181e+06
1.91492e+06
1.14296e+06
2.05145e+06
4.47105e+06
4.70358e+06
5.66751e+06
8.48531e+06
8.10985e+06
8.50255e+06
9.47939e+06
8.53244e+06
9.07546e+06
1.02073e+07
9.19412e+06
9.04337e+06
9.44987e+06
7.85378e+06
7.13725e+06
7.42474e+06
5.68873e+06
4.30287e+06
4.02409e+06
3.40153e+06
3.88396e+06
3.90267e+06
4.27499e+06
4.37464e+06
2.69383e+06
2.32917e+06
2.4894e+06
2.09542e+06
2.3226e+06
2.6509e+06
3.83082e+06
4.76414e+06
5.14219e+06
5.99522e+06
7.75287e+06
8.49106e+06
9.78471e+06
1.0121e+07
9.61069e+06
1.05469e+07
1.08468e+07
9.92415e+06
9.9881e+06
9.48642e+06
7.62554e+06
6.69194e+06
5.68466e+06
3.23196e+06
1.69199e+06
1.071e+06
3.28681e+06
4.26731e+06
5.29902e+06
6.18052e+06
6.33939e+06
4.485e+06
4.18826e+06
4.29451e+06
3.81057e+06
3.89597e+06
4.30992e+06
5.19416e+06
5.4103e+06
5.65772e+06
6.55464e+06
7.89498e+06