/*--------------------------------*- C++ -*----------------------------------*\
| =========                 |                                                 |
| \\      /  F ield         | OpenFOAM: The Open Source CFD Toolbox           |
|  \\    /   O peration     | Version:  v2012                                 |
|   \\  /    A nd           | Website:  www.openfoam.com                      |
|    \\/     M anipulation  |                                                 |
\*---------------------------------------------------------------------------*/
FoamFile
{
    version     2.0;
    format      ascii;
    class       pointSymmTensorField;
    location    "1";
    object      pEpsilon;
}
// * * * * * * * * * * * * * * * * * * * * * * * * * * * * * * * * * * * * * //

dimensions      [0 0 0 0 0 0 0];


internalField   nonuniform List<symmTensor> 
35937
(
(0 0 0 0 0 0)
(0 0 0 0 0 0)
(0 0 0 0 0 0)
(0 0 0 0 0 0)
(0 0 0 0 0 0)
(0 0 0 0 0 0)
(0 0 0 0 0 0)
(0 0 0 0 0 0)
(0 0 0 0 0 0)
(0 0 0 0 0 0)
(0 0 0 0 0 0)
(0 0 0 0 0 0)
(0 0 0 0 0 0)
(0 0 0 0 0 0)
(0 0 0 0 0 0)
(0 0 0 0 0 0)
(0 0 0 0 0 0)
(0 0 0 0 0 0)
(0 0 0 0 0 0)
(0 0 0 0 0 0)
(0 0 0 0 0 0)
(0 0 0 0 0 0)
(0 0 0 0 0 0)
(0 0 0 0 0 0)
(0 0 0 0 0 0)
(0 0 0 0 0 0)
(0 0 0 0 0 0)
(0 0 0 0 0 0)
(0 0 0 0 0 0)
(0 0 0 0 0 0)
(0 0 0 0 0 0)
(0 0 0 0 0 0)
(0 0 0 0 0 0)
(0 0 0 0 0 0)
(0 0 0 0 0 0)
(0 0 0 0 0 0)
(0 0 0 0 0 0)
(0 0 0 0 0 0)
(0 0 0 0 0 0)
(0 0 0 0 0 0)
(0 0 0 0 0 0)
(0 0 0 0 0 0)
(0 0 0 0 0 0)
(0 0 0 0 0 0)
(0 0 0 0 0 0)
(0 0 0 0 0 0)
(0 0 0 0 0 0)
(0 0 0 0 0 0)
(0 0 0 0 0 0)
(0 0 0 0 0 0)
(0 0 0 0 0 0)
(0 0 0 0 0 0)
(0 0 0 0 0 0)
(0 0 0 0 0 0)
(0 0 0 0 0 0)
(0 0 0 0 0 0)
(0 0 0 0 0 0)
(0 0 0 0 0 0)
(0 0 0 0 0 0)
(0 0 0 0 0 0)
(0 0 0 0 0 0)
(0 0 0 0 0 0)
(0 0 0 0 0 0)
(0 0 0 0 0 0)
(0 0 0 0 0 0)
(0 0 0 0 0 0)
(0 0 0 0 0 0)
(0 0 0 0 0 0)
(0 0 0 0 0 0)
(0 0 0 0 0 0)
(0 0 0 0 0 0)
(0 0 0 0 0 0)
(0 0 0 0 0 0)
(0 0 0 0 0 0)
(0 0 0 0 0 0)
(0 0 0 0 0 0)
(0 0 0 0 0 0)
(0 0 0 0 0 0)
(0 0 0 0 0 0)
(0 0 0 0 0 0)
(0 0 0 0 0 0)
(0 0 0 0 0 0)
(0 0 0 0 0 0)
(0 0 0 0 0 0)
(0 0 0 0 0 0)
(0 0 0 0 0 0)
(0 0 0 0 0 0)
(0 0 0 0 0 0)
(0 0 0 0 0 0)
(0 0 0 0 0 0)
(0 0 0 0 0 0)
(0 0 0 0 0 0)
(0 0 0 0 0 0)
(0 0 0 0 0 0)
(0 0 0 0 0 0)
(0 0 0 0 0 0)
(0 0 0 0 0 0)
(0 0 0 0 0 0)
(0 0 0 0 0 0)
(0 0 0 0 0 0)
(0 0 0 0 0 0)
(0 0 0 0 0 0)
(0 0 0 0 0 0)
(0 0 0 0 0 0)
(0 0 0 0 0 0)
(0 0 0 0 0 0)
(0 0 0 0 0 0)
(0 0 0 0 0 0)
(0 0 0 0 0 0)
(0 0 0 0 0 0)
(0 0 0 0 0 0)
(0 0 0 0 0 0)
(0 0 0 0 0 0)
(0 0 0 0 0 0)
(0 0 0 0 0 0)
(0 0 0 0 0 0)
(0 0 0 0 0 0)
(0 0 0 0 0 0)
(0 0 0 0 0 0)
(0 0 0 0 0 0)
(0 0 0 0 0 0)
(0 0 0 0 0 0)
(0 0 0 0 0 0)
(0 0 0 0 0 0)
(0 0 0 0 0 0)
(0 0 0 0 0 0)
(0 0 0 0 0 0)
(0 0 0 0 0 0)
(0 0 0 0 0 0)
(0 0 0 0 0 0)
(0 0 0 0 0 0)
(0 0 0 0 0 0)
(0 0 0 0 0 0)
(0 0 0 0 0 0)
(0 0 0 0 0 0)
(0 0 0 0 0 0)
(0 0 0 0 0 0)
(0 0 0 0 0 0)
(0 0 0 0 0 0)
(0 0 0 0 0 0)
(0 0 0 0 0 0)
(0 0 0 0 0 0)
(0 0 0 0 0 0)
(0 0 0 0 0 0)
(0 0 0 0 0 0)
(0 0 0 0 0 0)
(0 0 0 0 0 0)
(0 0 0 0 0 0)
(0 0 0 0 0 0)
(0 0 0 0 0 0)
(0 0 0 0 0 0)
(0 0 0 0 0 0)
(0 0 0 0 0 0)
(0 0 0 0 0 0)
(0 0 0 0 0 0)
(0 0 0 0 0 0)
(0 0 0 0 0 0)
(0 0 0 0 0 0)
(0 0 0 0 0 0)
(0 0 0 0 0 0)
(0 0 0 0 0 0)
(0 0 0 0 0 0)
(0 0 0 0 0 0)
(0 0 0 0 0 0)
(0 0 0 0 0 0)
(0 0 0 0 0 0)
(0 0 0 0 0 0)
(0 0 0 0 0 0)
(0 0 0 0 0 0)
(0 0 0 0 0 0)
(0 0 0 0 0 0)
(0 0 0 0 0 0)
(0 0 0 0 0 0)
(0 0 0 0 0 0)
(0 0 0 0 0 0)
(0 0 0 0 0 0)
(0 0 0 0 0 0)
(0 0 0 0 0 0)
(0 0 0 0 0 0)
(0 0 0 0 0 0)
(0 0 0 0 0 0)
(0 0 0 0 0 0)
(0 0 0 0 0 0)
(0 0 0 0 0 0)
(0 0 0 0 0 0)
(0 0 0 0 0 0)
(0 0 0 0 0 0)
(0 0 0 0 0 0)
(0 0 0 0 0 0)
(0 0 0 0 0 0)
(0 0 0 0 0 0)
(0 0 0 0 0 0)
(0 0 0 0 0 0)
(0 0 0 0 0 0)
(0 0 0 0 0 0)
(0 0 0 0 0 0)
(0 0 0 0 0 0)
(0 0 0 0 0 0)
(0 0 0 0 0 0)
(0 0 0 0 0 0)
(0 0 0 0 0 0)
(0 0 0 0 0 0)
(0 0 0 0 0 0)
(0 0 0 0 0 0)
(0 0 0 0 0 0)
(0 0 0 0 0 0)
(0 0 0 0 0 0)
(0 0 0 0 0 0)
(0 0 0 0 0 0)
(0 0 0 0 0 0)
(0 0 0 0 0 0)
(0 0 0 0 0 0)
(0 0 0 0 0 0)
(0 0 0 0 0 0)
(0 0 0 0 0 0)
(0 0 0 0 0 0)
(0 0 0 0 0 0)
(0 0 0 0 0 0)
(0 0 0 0 0 0)
(0 0 0 0 0 0)
(0 0 0 0 0 0)
(0 0 0 0 0 0)
(0 0 0 0 0 0)
(0 0 0 0 0 0)
(0 0 0 0 0 0)
(0 0 0 0 0 0)
(0 0 0 0 0 0)
(0 0 0 0 0 0)
(0 0 0 0 0 0)
(0 0 0 0 0 0)
(0 0 0 0 0 0)
(0 0 0 0 0 0)
(0 0 0 0 0 0)
(0 0 0 0 0 0)
(0 0 0 0 0 0)
(0 0 0 0 0 0)
(0 0 0 0 0 0)
(0 0 0 0 0 0)
(0 0 0 0 0 0)
(0 0 0 0 0 0)
(0 0 0 0 0 0)
(0 0 0 0 0 0)
(0 0 0 0 0 0)
(0 0 0 0 0 0)
(0 0 0 0 0 0)
(0 0 0 0 0 0)
(0 0 0 0 0 0)
(0 0 0 0 0 0)
(0 0 0 0 0 0)
(0 0 0 0 0 0)
(0 0 0 0 0 0)
(0 0 0 0 0 0)
(0 0 0 0 0 0)
(0 0 0 0 0 0)
(0 0 0 0 0 0)
(0 0 0 0 0 0)
(0 0 0 0 0 0)
(0 0 0 0 0 0)
(0 0 0 0 0 0)
(0 0 0 0 0 0)
(0 0 0 0 0 0)
(0 0 0 0 0 0)
(0 0 0 0 0 0)
(0 0 0 0 0 0)
(0 0 0 0 0 0)
(0 0 0 0 0 0)
(0 0 0 0 0 0)
(0 0 0 0 0 0)
(0 0 0 0 0 0)
(0 0 0 0 0 0)
(0 0 0 0 0 0)
(0 0 0 0 0 0)
(0 0 0 0 0 0)
(0 0 0 0 0 0)
(0 0 0 0 0 0)
(0 0 0 0 0 0)
(0 0 0 0 0 0)
(0 0 0 0 0 0)
(0 0 0 0 0 0)
(0 0 0 0 0 0)
(0 0 0 0 0 0)
(0 0 0 0 0 0)
(0 0 0 0 0 0)
(0 0 0 0 0 0)
(0 0 0 0 0 0)
(0 0 0 0 0 0)
(0 0 0 0 0 0)
(0 0 0 0 0 0)
(0 0 0 0 0 0)
(0 0 0 0 0 0)
(0 0 0 0 0 0)
(0 0 0 0 0 0)
(0 0 0 0 0 0)
(0 0 0 0 0 0)
(0 0 0 0 0 0)
(0 0 0 0 0 0)
(0 0 0 0 0 0)
(0 0 0 0 0 0)
(0 0 0 0 0 0)
(0 0 0 0 0 0)
(0 0 0 0 0 0)
(0 0 0 0 0 0)
(0 0 0 0 0 0)
(0 0 0 0 0 0)
(0 0 0 0 0 0)
(0 0 0 0 0 0)
(0 0 0 0 0 0)
(0 0 0 0 0 0)
(0 0 0 0 0 0)
(0 0 0 0 0 0)
(0 0 0 0 0 0)
(0 0 0 0 0 0)
(0 0 0 0 0 0)
(0 0 0 0 0 0)
(0 0 0 0 0 0)
(0 0 0 0 0 0)
(0 0 0 0 0 0)
(0 0 0 0 0 0)
(0 0 0 0 0 0)
(0 0 0 0 0 0)
(0 0 0 0 0 0)
(0 0 0 0 0 0)
(0 0 0 0 0 0)
(0 0 0 0 0 0)
(0 0 0 0 0 0)
(0 0 0 0 0 0)
(0 0 0 0 0 0)
(0 0 0 0 0 0)
(0 0 0 0 0 0)
(0 0 0 0 0 0)
(0 0 0 0 0 0)
(0 0 0 0 0 0)
(0 0 0 0 0 0)
(0 0 0 0 0 0)
(0 0 0 0 0 0)
(0 0 0 0 0 0)
(0 0 0 0 0 0)
(0 0 0 0 0 0)
(0 0 0 0 0 0)
(0 0 0 0 0 0)
(0 0 0 0 0 0)
(0 0 0 0 0 0)
(0 0 0 0 0 0)
(0 0 0 0 0 0)
(0 0 0 0 0 0)
(0 0 0 0 0 0)
(0 0 0 0 0 0)
(0 0 0 0 0 0)
(0 0 0 0 0 0)
(0 0 0 0 0 0)
(0 0 0 0 0 0)
(0 0 0 0 0 0)
(0 0 0 0 0 0)
(0 0 0 0 0 0)
(0 0 0 0 0 0)
(0 0 0 0 0 0)
(0 0 0 0 0 0)
(0 0 0 0 0 0)
(0 0 0 0 0 0)
(0 0 0 0 0 0)
(0 0 0 0 0 0)
(0 0 0 0 0 0)
(0 0 0 0 0 0)
(0 0 0 0 0 0)
(0 0 0 0 0 0)
(0 0 0 0 0 0)
(0 0 0 0 0 0)
(0 0 0 0 0 0)
(0 0 0 0 0 0)
(0 0 0 0 0 0)
(0 0 0 0 0 0)
(0 0 0 0 0 0)
(0 0 0 0 0 0)
(0 0 0 0 0 0)
(0 0 0 0 0 0)
(0 0 0 0 0 0)
(0 0 0 0 0 0)
(0 0 0 0 0 0)
(0 0 0 0 0 0)
(0 0 0 0 0 0)
(0 0 -2.11111e+07 0 -4.05802e+06 -1.5035e+07)
(0 0 -2.97293e+07 0 -4.20602e+06 -1.62275e+07)
(0 0 -3.06996e+07 0 -2.74564e+06 -1.5128e+07)
(0 0 -2.75154e+07 0 -908984 -1.33298e+07)
(0 0 -2.26793e+07 0 695651 -1.1011e+07)
(0 0 -1.76353e+07 0 1.74278e+06 -8.23816e+06)
(0 0 -1.25373e+07 0 1.99096e+06 -5.12453e+06)
(0 0 -5.88502e+06 0 758274 -1.61878e+06)
(0 0 -851840 0 214802 -1.4257e+06)
(0 0 1.90642e+06 0 127792 -3.10516e+06)
(0 0 1.57471e+06 0 264819 -5.86925e+06)
(0 0 -2.43449e+06 0 399092 -9.05701e+06)
(0 0 -1.01903e+07 0 369944 -1.21775e+07)
(0 0 -2.09636e+07 0 266677 -1.51296e+07)
(0 0 -3.35397e+07 0 -482369 -1.67321e+07)
(0 0 -4.54789e+07 0 -1.29662e+06 -1.67698e+07)
(0 0 -5.42359e+07 0 -2.17687e+06 -1.5024e+07)
(0 0 -5.75292e+07 0 -2.73608e+06 -1.15415e+07)
(0 0 -5.38485e+07 0 -2.83669e+06 -6.64349e+06)
(0 0 -4.28868e+07 0 -2.32945e+06 -855709)
(0 0 -2.56745e+07 0 -1.26653e+06 5.14047e+06)
(0 0 -4.47418e+06 0 203627 1.06148e+07)
(0 0 1.761e+07 0 1.81091e+06 1.48913e+07)
(0 0 3.71976e+07 0 3.25805e+06 1.74463e+07)
(0 0 5.12753e+07 0 4.27623e+06 1.79779e+07)
(0 0 5.77746e+07 0 4.70776e+06 1.64401e+07)
(0 0 5.59829e+07 0 4.55488e+06 1.30421e+07)
(0 0 4.67239e+07 0 4.00196e+06 8.2344e+06)
(0 0 3.23255e+07 0 3.36845e+06 2.73369e+06)
(0 0 1.64558e+07 0 2.91694e+06 -2.29695e+06)
(0 0 3.89864e+06 0 2.31987e+06 -4.66689e+06)
(0 0 -2.63748e+07 0 -1.08056e+07 -1.56245e+07)
(0 0 -4.21411e+07 0 -1.09025e+07 -1.86966e+07)
(0 0 -4.90003e+07 0 -7.9423e+06 -1.9305e+07)
(0 0 -4.90493e+07 0 -4.37488e+06 -1.88793e+07)
(0 0 -4.45886e+07 0 -1.09927e+06 -1.76741e+07)
(0 0 -3.77469e+07 0 1.47019e+06 -1.5789e+07)
(0 0 -2.99283e+07 0 3.05083e+06 -1.32546e+07)
(0 0 -2.11964e+07 0 3.10626e+06 -9.72087e+06)
(0 0 -9.88253e+06 0 1.93462e+06 -2.26553e+06)
(0 0 -1.31791e+06 0 921297 122455)
(0 0 3.96056e+06 0 138548 -1.09903e+06)
(0 0 5.04512e+06 0 -495238 -4.79099e+06)
(0 0 1.11366e+06 0 -1.09852e+06 -9.83552e+06)
(0 0 -8.15492e+06 0 -1.71795e+06 -1.52758e+07)
(0 0 -2.2101e+07 0 -2.48656e+06 -2.00692e+07)
(0 0 -3.88263e+07 0 -2.84825e+06 -2.36167e+07)
(0 0 -5.6172e+07 0 -3.39137e+06 -2.48429e+07)
(0 0 -7.05922e+07 0 -3.32602e+06 -2.33171e+07)
(0 0 -7.88271e+07 0 -2.74531e+06 -1.90026e+07)
(0 0 -7.83896e+07 0 -1.43275e+06 -1.22671e+07)
(0 0 -6.81522e+07 0 434679 -3.92485e+06)
(0 0 -4.8732e+07 0 2.65332e+06 4.95335e+06)
(0 0 -2.2466e+07 0 4.83658e+06 1.31786e+07)
(0 0 6.93399e+06 0 6.60694e+06 1.96455e+07)
(0 0 3.50389e+07 0 7.6305e+06 2.35008e+07)
(0 0 5.75107e+07 0 7.75011e+06 2.42676e+07)
(0 0 7.09119e+07 0 7.04926e+06 2.19023e+07)
(0 0 7.33481e+07 0 5.90917e+06 1.67881e+07)
(0 0 6.48359e+07 0 4.9724e+06 9.71329e+06)
(0 0 4.73392e+07 0 4.87479e+06 1.97664e+06)
(0 0 2.44177e+07 0 5.13491e+06 -3.84982e+06)
(0 0 -1.33684e+07 0 -1.34727e+07 -7.1974e+06)
(0 0 -2.84156e+07 0 -1.43595e+07 -1.1998e+07)
(0 0 -4.11963e+07 0 -1.14658e+07 -1.51269e+07)
(0 0 -4.9298e+07 0 -7.56594e+06 -1.69078e+07)
(0 0 -5.19935e+07 0 -3.64101e+06 -1.7661e+07)
(0 0 -4.987e+07 0 -160707 -1.76766e+07)
(0 0 -4.41814e+07 0 2.54997e+06 -1.71159e+07)
(0 0 -3.60253e+07 0 4.13824e+06 -1.58136e+07)
(0 0 -2.55803e+07 0 4.3248e+06 -1.25669e+07)
(0 0 -1.15581e+07 0 3.27913e+06 -2.33327e+06)
(0 0 -668266 0 1.74868e+06 2.6717e+06)
(0 0 6.98214e+06 0 170889 3.15584e+06)
(0 0 1.07031e+07 0 -1.28535e+06 131137)
(0 0 9.55715e+06 0 -2.5438e+06 -5.19334e+06)
(0 0 2.81398e+06 0 -3.57677e+06 -1.16225e+07)
(0 0 -9.5165e+06 0 -4.16117e+06 -1.80225e+07)
(0 0 -2.62815e+07 0 -4.36221e+06 -2.32038e+07)
(0 0 -4.49515e+07 0 -3.48816e+06 -2.62991e+07)
(0 0 -6.31716e+07 0 -2.36312e+06 -2.65721e+07)
(0 0 -7.72166e+07 0 -392466 -2.36129e+07)
(0 0 -8.39293e+07 0 1.9797e+06 -1.76843e+07)
(0 0 -8.11694e+07 0 4.61302e+06 -9.47496e+06)
(0 0 -6.8337e+07 0 7.03198e+06 -143248)
(0 0 -4.66594e+07 0 8.86222e+06 8.96916e+06)
(0 0 -1.90566e+07 0 9.73257e+06 1.65265e+07)
(0 0 1.02921e+07 0 9.48092e+06 2.14301e+07)
(0 0 3.66418e+07 0 8.18579e+06 2.29762e+07)
(0 0 5.54462e+07 0 6.25782e+06 2.09317e+07)
(0 0 6.302e+07 0 4.42595e+06 1.55187e+07)
(0 0 5.69192e+07 0 3.55204e+06 7.42906e+06)
(0 0 3.59547e+07 0 3.67418e+06 -1.34082e+06)
(0 0 1.10184e+07 0 -1.00091e+07 4.55853e+06)
(0 0 6.2857e+06 0 -1.23559e+07 -912656)
(0 0 -6.5087e+06 0 -1.13427e+07 -6.1493e+06)
(0 0 -2.11918e+07 0 -8.76613e+06 -9.87007e+06)
(0 0 -3.35666e+07 0 -5.48614e+06 -1.2244e+07)
(0 0 -4.13519e+07 0 -2.04858e+06 -1.37082e+07)
(0 0 -4.38797e+07 0 1.12379e+06 -1.46664e+07)
(0 0 -4.15544e+07 0 3.66967e+06 -1.52841e+07)
(0 0 -3.5139e+07 0 5.31686e+06 -1.51621e+07)
(0 0 -2.50495e+07 0 5.70008e+06 -1.25418e+07)
(0 0 -1.07462e+07 0 4.56289e+06 -1.78853e+06)
(0 0 816862 0 2.5329e+06 5.03922e+06)
(0 0 9.94633e+06 0 350457 7.58231e+06)
(0 0 1.62766e+07 0 -1.61237e+06 6.34965e+06)
(0 0 1.88759e+07 0 -3.1615e+06 2.22204e+06)
(0 0 1.65888e+07 0 -4.10477e+06 -3.83962e+06)
(0 0 8.65124e+06 0 -4.36523e+06 -1.07196e+07)
(0 0 -4.82589e+06 0 -3.71386e+06 -1.72713e+07)
(0 0 -2.25263e+07 0 -2.39206e+06 -2.23326e+07)
(0 0 -4.16857e+07 0 137304 -2.49383e+07)
(0 0 -6.00769e+07 0 2.68155e+06 -2.47403e+07)
(0 0 -7.41147e+07 0 5.54362e+06 -2.13985e+07)
(0 0 -8.08776e+07 0 8.03701e+06 -1.53861e+07)
(0 0 -7.85124e+07 0 9.88157e+06 -7.54309e+06)
(0 0 -6.67074e+07 0 1.06327e+07 871136)
(0 0 -4.69433e+07 0 1.01e+07 8.50151e+06)
(0 0 -2.23681e+07 0 8.25069e+06 1.40809e+07)
(0 0 2.56362e+06 0 5.35968e+06 1.6619e+07)
(0 0 2.26152e+07 0 2.00788e+06 1.54806e+07)
(0 0 3.22728e+07 0 -853730 1.04236e+07)
(0 0 2.61782e+07 0 -1.90723e+06 2.28285e+06)
(0 0 3.03454e+07 0 -3.2178e+06 1.35523e+07)
(0 0 4.00159e+07 0 -6.97241e+06 9.34343e+06)
(0 0 3.53789e+07 0 -8.6006e+06 3.51351e+06)
(0 0 2.22755e+07 0 -8.20731e+06 -1.28283e+06)
(0 0 5.78387e+06 0 -6.36572e+06 -4.69374e+06)
(0 0 -1.0022e+07 0 -3.66626e+06 -6.95001e+06)
(0 0 -2.23028e+07 0 -631417 -8.48434e+06)
(0 0 -2.95269e+07 0 2.30277e+06 -9.71851e+06)
(0 0 -3.13025e+07 0 4.80693e+06 -1.08128e+07)
(0 0 -2.79756e+07 0 6.57631e+06 -1.1303e+07)
(0 0 -2.01095e+07 0 7.06705e+06 -9.46217e+06)
(0 0 -7.995e+06 0 5.53191e+06 -759335)
(0 0 2.35565e+06 0 3.06248e+06 6.32395e+06)
(0 0 1.14733e+07 0 550301 1.04454e+07)
(0 0 1.93064e+07 0 -1.55499e+06 1.14214e+07)
(0 0 2.50571e+07 0 -2.99735e+06 9.49729e+06)
(0 0 2.73805e+07 0 -3.63489e+06 5.1334e+06)
(0 0 2.48746e+07 0 -3.34035e+06 -950233)
(0 0 1.66849e+07 0 -2.17939e+06 -7.76709e+06)
(0 0 2.92859e+06 0 -108667 -1.42283e+07)
(0 0 -1.50362e+07 0 2.34936e+06 -1.92575e+07)
(0 0 -3.4347e+07 0 5.52844e+06 -2.18396e+07)
(0 0 -5.29338e+07 0 8.01719e+06 -2.19169e+07)
(0 0 -6.74344e+07 0 9.98242e+06 -1.91707e+07)
(0 0 -7.51562e+07 0 1.07684e+07 -1.41409e+07)
(0 0 -7.44705e+07 0 1.02061e+07 -7.66599e+06)
(0 0 -6.52546e+07 0 8.09126e+06 -953169)
(0 0 -4.91467e+07 0 4.52229e+06 4.73067e+06)
(0 0 -2.94753e+07 0 -155469 8.20179e+06)
(0 0 -1.09865e+07 0 -5.00058e+06 8.49759e+06)
(0 0 661257 0 -7.48113e+06 5.10422e+06)
(0 0 3.08528e+07 0 1.9743e+06 1.56402e+07)
(0 0 4.94758e+07 0 -2.30814e+06 1.4608e+07)
(0 0 5.66902e+07 0 -5.83257e+06 1.03316e+07)
(0 0 5.39363e+07 0 -7.32058e+06 5.81607e+06)
(0 0 4.36424e+07 0 -6.95034e+06 2.04075e+06)
(0 0 2.89295e+07 0 -5.21722e+06 -678749)
(0 0 1.30797e+07 0 -2.64265e+06 -2.41292e+06)
(0 0 -1.01159e+06 0 304589 -3.48101e+06)
(0 0 -1.12546e+07 0 3.2393e+06 -4.27206e+06)
(0 0 -1.6559e+07 0 5.83514e+06 -4.99256e+06)
(0 0 -1.67683e+07 0 7.6963e+06 -5.35828e+06)
(0 0 -1.23876e+07 0 8.09864e+06 -4.26479e+06)
(0 0 -4.3405e+06 0 5.90617e+06 406184)
(0 0 3.21174e+06 0 3.07587e+06 6.01511e+06)
(0 0 1.07662e+07 0 469667 1.06601e+07)
(0 0 1.84802e+07 0 -1.49223e+06 1.3525e+07)
(0 0 2.58102e+07 0 -2.62532e+06 1.41478e+07)
(0 0 3.15072e+07 0 -2.81803e+06 1.23474e+07)
(0 0 3.39415e+07 0 -2.08582e+06 8.2938e+06)
(0 0 3.15887e+07 0 -473657 2.52665e+06)
(0 0 2.35897e+07 0 1.74686e+06 -4.07511e+06)
(0 0 1.01103e+07 0 4.42965e+06 -1.04726e+07)
(0 0 -7.45245e+06 0 6.87015e+06 -1.56533e+07)
(0 0 -2.6196e+07 0 9.31515e+06 -1.85469e+07)
(0 0 -4.41818e+07 0 1.03869e+07 -1.92437e+07)
(0 0 -5.83331e+07 0 1.02702e+07 -1.74016e+07)
(0 0 -6.61625e+07 0 8.51168e+06 -1.35143e+07)
(0 0 -6.61183e+07 0 5.1449e+06 -8.30241e+06)
(0 0 -5.79006e+07 0 320493 -2.76862e+06)
(0 0 -4.2568e+07 0 -5.11825e+06 2.06523e+06)
(0 0 -2.23076e+07 0 -8.41189e+06 4.84309e+06)
(0 0 1.32837e+07 0 2.71391e+06 1.06267e+07)
(0 0 2.95659e+07 0 -857036 1.31963e+07)
(0 0 4.41591e+07 0 -4.68752e+06 1.21193e+07)
(0 0 5.35098e+07 0 -7.08045e+06 9.40193e+06)
(0 0 5.59707e+07 0 -7.78028e+06 6.22933e+06)
(0 0 5.16761e+07 0 -6.98987e+06 3.39315e+06)
(0 0 4.21342e+07 0 -5.06012e+06 1.35865e+06)
(0 0 2.96826e+07 0 -2.38072e+06 260704)
(0 0 1.6894e+07 0 669445 -56158.7)
(0 0 6.02862e+06 0 3.73628e+06 84865.3)
(0 0 -1.37143e+06 0 6.44654e+06 386298)
(0 0 -4.67588e+06 0 8.28011e+06 764863)
(0 0 -4.13136e+06 0 8.38512e+06 1.32411e+06)
(0 0 -898621 0 5.4615e+06 1.26348e+06)
(0 0 3.08127e+06 0 2.38716e+06 4.1385e+06)
(0 0 8.03367e+06 0 -142520 8.09929e+06)
(0 0 1.41673e+07 0 -1.82768e+06 1.19774e+07)
(0 0 2.12225e+07 0 -2.57269e+06 1.47638e+07)
(0 0 2.8301e+07 0 -2.37258e+06 1.57079e+07)
(0 0 3.39534e+07 0 -1.28317e+06 1.44035e+07)
(0 0 3.65139e+07 0 515595 1.08645e+07)
(0 0 3.45382e+07 0 2.8304e+06 5.53455e+06)
(0 0 2.72982e+07 0 5.26293e+06 -762157)
(0 0 1.50744e+07 0 7.59289e+06 -7.00185e+06)
(0 0 -695870 0 9.10531e+06 -1.21971e+07)
(0 0 -1.71244e+07 0 1.00822e+07 -1.52172e+07)
(0 0 -3.23223e+07 0 9.39048e+06 -1.6153e+07)
(0 0 -4.3391e+07 0 7.34126e+06 -1.45691e+07)
(0 0 -4.76626e+07 0 3.89358e+06 -1.07166e+07)
(0 0 -4.2862e+07 0 -288798 -4.97057e+06)
(0 0 -2.72217e+07 0 -3.45481e+06 1.4205e+06)
(0 0 -7.52637e+06 0 410188 2.28496e+06)
(0 0 -1.83465e+06 0 -1.58184e+06 6.72478e+06)
(0 0 1.08827e+07 0 -4.45743e+06 8.81513e+06)
(0 0 2.52982e+07 0 -6.93266e+06 8.7475e+06)
(0 0 3.75066e+07 0 -8.37695e+06 7.21458e+06)
(0 0 4.50965e+07 0 -8.5788e+06 4.9834e+06)
(0 0 4.71063e+07 0 -7.57905e+06 2.7883e+06)
(0 0 4.38641e+07 0 -5.5679e+06 1.21426e+06)
(0 0 3.66883e+07 0 -2.82483e+06 593965)
(0 0 2.74655e+07 0 320879 964914)
(0 0 1.8172e+07 0 3.49425e+06 2.10713e+06)
(0 0 1.04261e+07 0 6.23326e+06 3.6371e+06)
(0 0 5.1643e+06 0 7.89626e+06 5.05232e+06)
(0 0 2.51298e+06 0 7.59751e+06 5.41371e+06)
(0 0 1.52469e+06 0 4.15165e+06 1.454e+06)
(0 0 2.21975e+06 0 1.02604e+06 1.25825e+06)
(0 0 4.41374e+06 0 -1.31587e+06 3.61503e+06)
(0 0 8.19258e+06 0 -2.69567e+06 7.40001e+06)
(0 0 1.35134e+07 0 -3.11308e+06 1.13939e+07)
(0 0 1.99275e+07 0 -2.62036e+06 1.45202e+07)
(0 0 2.64796e+07 0 -1.34534e+06 1.59449e+07)
(0 0 3.1819e+07 0 546412 1.51943e+07)
(0 0 3.44964e+07 0 2.79062e+06 1.22392e+07)
(0 0 3.33326e+07 0 5.14945e+06 7.50259e+06)
(0 0 2.78335e+07 0 7.23022e+06 1.79916e+06)
(0 0 1.84239e+07 0 8.87064e+06 -3.83645e+06)
(0 0 6.56061e+06 0 9.51214e+06 -8.4073e+06)
(0 0 -4.93326e+06 0 9.59048e+06 -1.0711e+07)
(0 0 -1.41051e+07 0 8.44536e+06 -1.06693e+07)
(0 0 -1.81273e+07 0 6.61096e+06 -7.70772e+06)
(0 0 -1.41064e+07 0 4.15454e+06 -2.32613e+06)
(0 0 -1.5722e+07 0 -987319 -4.08207e+06)
(0 0 -1.95928e+07 0 -1.30431e+06 -545011)
(0 0 -1.50149e+07 0 -2.97115e+06 2.90684e+06)
(0 0 -5.13043e+06 0 -5.28331e+06 4.9659e+06)
(0 0 7.10502e+06 0 -7.40663e+06 5.44372e+06)
(0 0 1.90613e+07 0 -8.77686e+06 4.56899e+06)
(0 0 2.86559e+07 0 -9.10965e+06 2.84317e+06)
(0 0 3.4557e+07 0 -8.33102e+06 917834)
(0 0 3.62928e+07 0 -6.53452e+06 -557207)
(0 0 3.42153e+07 0 -3.93813e+06 -1.08424e+06)
(0 0 2.93158e+07 0 -865133 -428496)
(0 0 2.29238e+07 0 2.25878e+06 1.32988e+06)
(0 0 1.63582e+07 0 4.87871e+06 3.78064e+06)
(0 0 1.06135e+07 0 6.28076e+06 6.10464e+06)
(0 0 6.17975e+06 0 5.65785e+06 6.62505e+06)
(0 0 2.67395e+06 0 2.18593e+06 853174)
(0 0 1.31103e+06 0 -715031 -1.70685e+06)
(0 0 1.49899e+06 0 -2.77948e+06 -1.26849e+06)
(0 0 3.07058e+06 0 -3.90403e+06 1.46322e+06)
(0 0 6.0475e+06 0 -4.1172e+06 5.45476e+06)
(0 0 1.03579e+07 0 -3.50228e+06 9.63872e+06)
(0 0 1.5626e+07 0 -2.17982e+06 1.30182e+07)
(0 0 2.11131e+07 0 -323302 1.48103e+07)
(0 0 2.5808e+07 0 1.88682e+06 1.45824e+07)
(0 0 2.86572e+07 0 4.20857e+06 1.23384e+07)
(0 0 2.88365e+07 0 6.46605e+06 8.5221e+06)
(0 0 2.60604e+07 0 8.38272e+06 3.94743e+06)
(0 0 2.07295e+07 0 9.93527e+06 -365946)
(0 0 1.39514e+07 0 1.0759e+07 -3.4759e+06)
(0 0 7.7654e+06 0 1.1121e+07 -4.33152e+06)
(0 0 2.98807e+06 0 9.3624e+06 -3.09995e+06)
(0 0 -8.25513e+06 0 1.04666e+06 -5.24072e+06)
(0 0 -1.3553e+07 0 1.97247e+06 -4.2612e+06)
(0 0 -1.54862e+07 0 1.0829e+06 -1.66832e+06)
(0 0 -1.37938e+07 0 -1.11575e+06 917204)
(0 0 -8.87844e+06 0 -3.82919e+06 2.68592e+06)
(0 0 -1.70453e+06 0 -6.36713e+06 3.24876e+06)
(0 0 6.43737e+06 0 -8.24971e+06 2.57483e+06)
(0 0 1.41883e+07 0 -9.16608e+06 959455)
(0 0 2.03704e+07 0 -8.98496e+06 -1.05835e+06)
(0 0 2.41816e+07 0 -7.72884e+06 -2.82871e+06)
(0 0 2.53058e+07 0 -5.57586e+06 -3.74936e+06)
(0 0 2.39152e+07 0 -2.84667e+06 -3.41702e+06)
(0 0 2.05717e+07 0 -6560.44 -1.75025e+06)
(0 0 1.60568e+07 0 2.34129e+06 907215)
(0 0 1.11864e+07 0 3.49473e+06 3.64073e+06)
(0 0 6.68531e+06 0 2.82528e+06 4.58086e+06)
(0 0 2.86825e+06 0 3088.32 -373411)
(0 0 1.15518e+06 0 -2.34526e+06 -3.79487e+06)
(0 0 689407 0 -4.05271e+06 -4.88846e+06)
(0 0 1.00609e+06 0 -4.99859e+06 -3.71433e+06)
(0 0 2.01528e+06 0 -5.16936e+06 -797889)
(0 0 3.80066e+06 0 -4.60877e+06 3.11736e+06)
(0 0 6.42106e+06 0 -3.40637e+06 7.16753e+06)
(0 0 9.76e+06 0 -1.67153e+06 1.05134e+07)
(0 0 1.34684e+07 0 454559 1.24992e+07)
(0 0 1.69922e+07 0 2.8412e+06 1.27867e+07)
(0 0 1.968e+07 0 5.30482e+06 1.14224e+07)
(0 0 2.08877e+07 0 7.69775e+06 8.81274e+06)
(0 0 2.00753e+07 0 9.68395e+06 5.59803e+06)
(0 0 1.67291e+07 0 1.08115e+07 2.41538e+06)
(0 0 1.01751e+07 0 9.28301e+06 -325798)
(0 0 3.68196e+06 0 5.19549e+06 -2.1648e+06)
(0 0 3.74846e+06 0 6.95669e+06 -3.10343e+06)
(0 0 2.03896e+06 0 6.5705e+06 -2.25789e+06)
(0 0 226344 0 4.72659e+06 -528090)
(0 0 -722295 0 1.9388e+06 1.30087e+06)
(0 0 -372874 0 -1.22903e+06 2.60538e+06)
(0 0 1.30873e+06 0 -4.31205e+06 2.95153e+06)
(0 0 4.04747e+06 0 -6.86955e+06 2.17506e+06)
(0 0 7.35781e+06 0 -8.58545e+06 407753)
(0 0 1.06423e+07 0 -9.25217e+06 -1.94661e+06)
(0 0 1.33069e+07 0 -8.82658e+06 -4.30286e+06)
(0 0 1.48675e+07 0 -7.42569e+06 -6.03158e+06)
(0 0 1.50373e+07 0 -5.34307e+06 -6.61886e+06)
(0 0 1.37777e+07 0 -3.03055e+06 -5.82515e+06)
(0 0 1.13163e+07 0 -1.06386e+06 -3.83336e+06)
(0 0 8.14354e+06 0 -38624.8 -1.38944e+06)
(0 0 5.01587e+06 0 -349638 44007.9)
(0 0 2.81559e+06 0 -1.8535e+06 -1.82215e+06)
(0 0 2.31116e+06 0 -3.34379e+06 -4.3315e+06)
(0 0 2.6175e+06 0 -4.62317e+06 -6.02155e+06)
(0 0 3.03456e+06 0 -5.46648e+06 -6.30736e+06)
(0 0 3.22465e+06 0 -5.74362e+06 -5.0651e+06)
(0 0 3.14921e+06 0 -5.41381e+06 -2.52282e+06)
(0 0 2.98015e+06 0 -4.4895e+06 818541)
(0 0 2.97929e+06 0 -3.02382e+06 4.30671e+06)
(0 0 3.37712e+06 0 -1.09346e+06 7.286e+06)
(0 0 4.2698e+06 0 1.16456e+06 9.23686e+06)
(0 0 5.52728e+06 0 3.54167e+06 9.86861e+06)
(0 0 6.71674e+06 0 5.61486e+06 9.12035e+06)
(0 0 7.00205e+06 0 6.68879e+06 7.03908e+06)
(0 0 5.13599e+06 0 5.46497e+06 3.63146e+06)
(0 0 7.88249e+06 0 7.89299e+06 1.35278e+06)
(0 0 1.18007e+07 0 1.00723e+07 387035)
(0 0 1.40391e+07 0 1.04817e+07 272717)
(0 0 1.55305e+07 0 9.75635e+06 1.02595e+06)
(0 0 1.61488e+07 0 7.87045e+06 2.29513e+06)
(0 0 1.59444e+07 0 5.16678e+06 3.63156e+06)
(0 0 1.50188e+07 0 1.88457e+06 4.54601e+06)
(0 0 1.36024e+07 0 -1.53031e+06 4.65368e+06)
(0 0 1.20102e+07 0 -4.70061e+06 3.72147e+06)
(0 0 1.05372e+07 0 -7.23372e+06 1.76249e+06)
(0 0 9.38098e+06 0 -8.86879e+06 -958797)
(0 0 8.58019e+06 0 -9.4634e+06 -3.96839e+06)
(0 0 8.01218e+06 0 -9.05983e+06 -6.68378e+06)
(0 0 7.44036e+06 0 -7.87078e+06 -8.55281e+06)
(0 0 6.61549e+06 0 -6.27073e+06 -9.20851e+06)
(0 0 5.41207e+06 0 -4.72055e+06 -8.61079e+06)
(0 0 3.98547e+06 0 -3.63784e+06 -7.11919e+06)
(0 0 2.91252e+06 0 -3.18661e+06 -5.33859e+06)
(0 0 3.29477e+06 0 -2.91807e+06 -2.99002e+06)
(0 0 4.82909e+06 0 -3.35088e+06 -3.16538e+06)
(0 0 6.8556e+06 0 -4.15521e+06 -4.30998e+06)
(0 0 8.5916e+06 0 -4.94425e+06 -5.41833e+06)
(0 0 9.41294e+06 0 -5.4341e+06 -5.80301e+06)
(0 0 8.93072e+06 0 -5.46541e+06 -5.17005e+06)
(0 0 7.07058e+06 0 -4.9665e+06 -3.56811e+06)
(0 0 4.08521e+06 0 -3.92841e+06 -1.30657e+06)
(0 0 508832 0 -2.42042e+06 1.15477e+06)
(0 0 -2.94043e+06 0 -626763 3.32396e+06)
(0 0 -5.48036e+06 0 1.04573e+06 4.77416e+06)
(0 0 -6.37026e+06 0 1.91587e+06 5.17886e+06)
(0 0 -4.90147e+06 0 1.20838e+06 4.15387e+06)
(0 0 -83364.8 0 6.0885e+06 1.59405e+06)
(0 0 1.93075e+06 0 8.71649e+06 2.25734e+06)
(0 0 5.9905e+06 0 1.04953e+07 2.59754e+06)
(0 0 1.13496e+07 0 1.14625e+07 3.09502e+06)
(0 0 1.74088e+07 0 1.13779e+07 4.00918e+06)
(0 0 2.33884e+07 0 1.03662e+07 5.32965e+06)
(0 0 2.77553e+07 0 8.15055e+06 6.62881e+06)
(0 0 2.97824e+07 0 5.16817e+06 7.54318e+06)
(0 0 2.9262e+07 0 1.65984e+06 7.68083e+06)
(0 0 2.65047e+07 0 -1.89602e+06 6.81484e+06)
(0 0 2.22104e+07 0 -5.1347e+06 4.87165e+06)
(0 0 1.72391e+07 0 -7.68909e+06 1.99983e+06)
(0 0 1.24056e+07 0 -9.35202e+06 -1.4555e+06)
(0 0 8.29946e+06 0 -1.00459e+07 -5.01003e+06)
(0 0 5.20376e+06 0 -9.872e+06 -8.1411e+06)
(0 0 3.12086e+06 0 -9.05679e+06 -1.04054e+07)
(0 0 1.91343e+06 0 -7.8866e+06 -1.15323e+07)
(0 0 1.52442e+06 0 -6.56835e+06 -1.13973e+07)
(0 0 2.20197e+06 0 -5.09597e+06 -9.59662e+06)
(0 0 4.81986e+06 0 -2.9673e+06 -3.45009e+06)
(0 0 8.16822e+06 0 -2.31302e+06 -726823)
(0 0 1.19999e+07 0 -2.63128e+06 -392502)
(0 0 1.56457e+07 0 -3.37303e+06 -1.39357e+06)
(0 0 1.82741e+07 0 -4.10189e+06 -2.76096e+06)
(0 0 1.90607e+07 0 -4.5377e+06 -3.85623e+06)
(0 0 1.74289e+07 0 -4.51628e+06 -4.35215e+06)
(0 0 1.32653e+07 0 -3.97126e+06 -4.19019e+06)
(0 0 7.08291e+06 0 -2.94736e+06 -3.50524e+06)
(0 0 134077 0 -1.66761e+06 -2.5118e+06)
(0 0 -5.49839e+06 0 -599890 -1.34465e+06)
(0 0 -6.81089e+06 0 -341416 19053.2)
(0 0 -1.25525e+07 0 160571 -2.14254e+06)
(0 0 -1.84337e+07 0 2.83225e+06 -499791)
(0 0 -1.82309e+07 0 6.11067e+06 956650)
(0 0 -1.31237e+07 0 9.10742e+06 2.23234e+06)
(0 0 -4.43258e+06 0 1.12923e+07 3.61968e+06)
(0 0 6.35817e+06 0 1.23551e+07 5.22478e+06)
(0 0 1.78061e+07 0 1.19859e+07 6.94189e+06)
(0 0 2.86774e+07 0 1.06853e+07 8.77624e+06)
(0 0 3.67921e+07 0 8.13584e+06 1.01717e+07)
(0 0 4.10479e+07 0 4.88851e+06 1.08202e+07)
(0 0 4.11349e+07 0 1.18666e+06 1.04232e+07)
(0 0 3.75273e+07 0 -2.47909e+06 8.89361e+06)
(0 0 3.13093e+07 0 -5.77187e+06 6.28383e+06)
(0 0 2.3849e+07 0 -8.36154e+06 2.82647e+06)
(0 0 1.64913e+07 0 -1.00828e+07 -1.11124e+06)
(0 0 1.02861e+07 0 -1.0875e+07 -5.08199e+06)
(0 0 5.8538e+06 0 -1.07946e+07 -8.62429e+06)
(0 0 3.39666e+06 0 -9.92176e+06 -1.12888e+07)
(0 0 2.85358e+06 0 -8.27772e+06 -1.25221e+07)
(0 0 4.10456e+06 0 -5.77477e+06 -1.11103e+07)
(0 0 7.40346e+06 0 -2.10842e+06 -3.00337e+06)
(0 0 1.13243e+07 0 -522134 2.10938e+06)
(0 0 1.60905e+07 0 -384383 4.30138e+06)
(0 0 2.13184e+07 0 -1.03686e+06 4.27986e+06)
(0 0 2.61359e+07 0 -1.9312e+06 2.91314e+06)
(0 0 2.93603e+07 0 -2.67556e+06 883658)
(0 0 2.98257e+07 0 -2.99943e+06 -1.31899e+06)
(0 0 2.67816e+07 0 -2.72503e+06 -3.37499e+06)
(0 0 2.03069e+07 0 -1.78529e+06 -5.05256e+06)
(0 0 1.16926e+07 0 -329746 -5.99382e+06)
(0 0 3.6833e+06 0 935909 -5.18991e+06)
(0 0 -1.53332e+07 0 -6.10895e+06 -5.91196e+06)
(0 0 -2.77372e+07 0 -4.15668e+06 -5.71987e+06)
(0 0 -3.58844e+07 0 -250342 -4.61775e+06)
(0 0 -3.87613e+07 0 3.87764e+06 -3.14729e+06)
(0 0 -3.58915e+07 0 7.58625e+06 -1.29886e+06)
(0 0 -2.75625e+07 0 1.0519e+07 941721)
(0 0 -1.48358e+07 0 1.23708e+07 3.52094e+06)
(0 0 555498 0 1.30506e+07 6.26618e+06)
(0 0 1.65362e+07 0 1.21719e+07 8.79142e+06)
(0 0 3.15189e+07 0 1.04926e+07 1.11376e+07)
(0 0 4.28305e+07 0 7.62107e+06 1.2697e+07)
(0 0 4.90958e+07 0 4.16578e+06 1.32396e+07)
(0 0 4.9969e+07 0 353875 1.2569e+07)
(0 0 4.61052e+07 0 -3.3325e+06 1.07144e+07)
(0 0 3.89348e+07 0 -6.58231e+06 7.81369e+06)
(0 0 3.025e+07 0 -9.08076e+06 4.13481e+06)
(0 0 2.18048e+07 0 -1.06475e+07 34385)
(0 0 1.49628e+07 0 -1.11487e+07 -4.05806e+06)
(0 0 1.05009e+07 0 -1.04943e+07 -7.61003e+06)
(0 0 8.56774e+06 0 -8.57422e+06 -9.82869e+06)
(0 0 8.75725e+06 0 -5.31206e+06 -9.16922e+06)
(0 0 1.04996e+07 0 -757435 -1.7562e+06)
(0 0 1.3122e+07 0 1.45648e+06 4.3088e+06)
(0 0 1.72199e+07 0 1.98011e+06 8.02025e+06)
(0 0 2.27711e+07 0 1.4866e+06 9.45436e+06)
(0 0 2.9034e+07 0 571940 9.02144e+06)
(0 0 3.46237e+07 0 -285001 7.11919e+06)
(0 0 3.77722e+07 0 -691278 4.10594e+06)
(0 0 3.67442e+07 0 -319607 333297)
(0 0 3.0299e+07 0 981484 -3.66218e+06)
(0 0 1.80183e+07 0 2.52806e+06 -6.27953e+06)
(0 0 -2.41221e+06 0 -8.60433e+06 -4.42107e+06)
(0 0 -1.2118e+07 0 -8.21661e+06 -7.32833e+06)
(0 0 -2.54719e+07 0 -5.24892e+06 -8.94843e+06)
(0 0 -3.87066e+07 0 -1.54493e+06 -9.39415e+06)
(0 0 -4.85682e+07 0 2.28783e+06 -8.71675e+06)
(0 0 -5.26823e+07 0 5.92693e+06 -6.99433e+06)
(0 0 -4.98323e+07 0 9.07286e+06 -4.36876e+06)
(0 0 -4.01005e+07 0 1.14677e+07 -1.06505e+06)
(0 0 -2.47455e+07 0 1.27845e+07 2.62876e+06)
(0 0 -5.96535e+06 0 1.30142e+07 6.36521e+06)
(0 0 1.34877e+07 0 1.16551e+07 9.57803e+06)
(0 0 3.16672e+07 0 9.65081e+06 1.23443e+07)
(0 0 4.55433e+07 0 6.5587e+06 1.40828e+07)
(0 0 5.35709e+07 0 3.02011e+06 1.46533e+07)
(0 0 5.54343e+07 0 -746270 1.39639e+07)
(0 0 5.19733e+07 0 -4.26187e+06 1.21331e+07)
(0 0 4.48978e+07 0 -7.21305e+06 9.35306e+06)
(0 0 3.62832e+07 0 -9.25914e+06 5.90752e+06)
(0 0 2.80769e+07 0 -1.01567e+07 2.16384e+06)
(0 0 2.16508e+07 0 -9.68422e+06 -1.37239e+06)
(0 0 1.75057e+07 0 -7.69246e+06 -3.92947e+06)
(0 0 1.51206e+07 0 -4.16483e+06 -4.22828e+06)
(0 0 1.31583e+07 0 478224 -98099.5)
(0 0 1.2596e+07 0 2.9341e+06 5.01175e+06)
(0 0 1.41705e+07 0 3.7186e+06 9.26137e+06)
(0 0 1.81568e+07 0 3.40295e+06 1.20124e+07)
(0 0 2.40254e+07 0 2.53664e+06 1.29955e+07)
(0 0 3.03035e+07 0 1.61272e+06 1.20556e+07)
(0 0 3.45621e+07 0 1.07403e+06 9.10164e+06)
(0 0 3.35662e+07 0 1.26905e+06 4.19736e+06)
(0 0 2.34665e+07 0 1.99294e+06 -1.61331e+06)
(0 0 1.77596e+07 0 -6.12064e+06 3.8662e+06)
(0 0 2.0256e+07 0 -7.57371e+06 -839540)
(0 0 1.12718e+07 0 -6.8194e+06 -5.85956e+06)
(0 0 -5.05301e+06 0 -4.91463e+06 -9.852e+06)
(0 0 -2.44995e+07 0 -2.3061e+06 -1.24335e+07)
(0 0 -4.29581e+07 0 734389 -1.34357e+07)
(0 0 -5.68165e+07 0 3.94129e+06 -1.28318e+07)
(0 0 -6.34292e+07 0 7.0301e+06 -1.07421e+07)
(0 0 -6.14871e+07 0 9.66124e+06 -7.42971e+06)
(0 0 -5.12062e+07 0 1.1575e+07 -3.28477e+06)
(0 0 -3.41768e+07 0 1.24131e+07 1.23838e+06)
(0 0 -1.30564e+07 0 1.22474e+07 5.67605e+06)
(0 0 8.83253e+06 0 1.05063e+07 9.36754e+06)
(0 0 2.92559e+07 0 8.27599e+06 1.24004e+07)
(0 0 4.50105e+07 0 5.11135e+06 1.4294e+07)
(0 0 5.45003e+07 0 1.67675e+06 1.50048e+07)
(0 0 5.7492e+07 0 -1.79782e+06 1.45485e+07)
(0 0 5.4974e+07 0 -4.82729e+06 1.31169e+07)
(0 0 4.87956e+07 0 -7.08115e+06 1.09451e+07)
(0 0 4.10655e+07 0 -8.20532e+06 8.33537e+06)
(0 0 3.35498e+07 0 -7.96231e+06 5.67576e+06)
(0 0 2.71118e+07 0 -6.21372e+06 3.472e+06)
(0 0 2.13208e+07 0 -3.01714e+06 2.22699e+06)
(0 0 1.43748e+07 0 976784 1.41294e+06)
(0 0 9.40232e+06 0 3.27585e+06 3.80661e+06)
(0 0 7.00576e+06 0 4.1056e+06 7.25864e+06)
(0 0 7.59669e+06 0 3.8063e+06 1.05587e+07)
(0 0 1.0872e+07 0 2.75268e+06 1.27407e+07)
(0 0 1.54191e+07 0 1.31935e+06 1.29705e+07)
(0 0 1.83376e+07 0 -76135.3 1.04677e+07)
(0 0 1.50892e+07 0 -811296 4.85126e+06)
(0 0 2.97799e+07 0 -960798 1.44701e+07)
(0 0 4.57656e+07 0 -3.5995e+06 1.16338e+07)
(0 0 4.92463e+07 0 -5.18674e+06 5.59104e+06)
(0 0 4.15988e+07 0 -5.52709e+06 -932064)
(0 0 2.49055e+07 0 -4.79521e+06 -6.96839e+06)
(0 0 2.20233e+06 0 -3.18902e+06 -1.18877e+07)
(0 0 -2.26918e+07 0 -914177 -1.5214e+07)
(0 0 -4.56621e+07 0 1.79677e+06 -1.66521e+07)
(0 0 -6.29437e+07 0 4.65751e+06 -1.61298e+07)
(0 0 -7.17665e+07 0 7.37055e+06 -1.38098e+07)
(0 0 -7.08172e+07 0 9.58249e+06 -1.00603e+07)
(0 0 -6.04642e+07 0 1.10664e+07 -5.40525e+06)
(0 0 -4.2577e+07 0 1.14726e+07 -418638)
(0 0 -2.01552e+07 0 1.09641e+07 4.36825e+06)
(0 0 3.0906e+06 0 8.95482e+06 8.28867e+06)
(0 0 2.47363e+07 0 6.62753e+06 1.1406e+07)