/*--------------------------------*- C++ -*----------------------------------*\
| =========                 |                                                 |
| \\      /  F ield         | OpenFOAM: The Open Source CFD Toolbox           |
|  \\    /   O peration     | Version:  v2012                                 |
|   \\  /    A nd           | Website:  www.openfoam.com                      |
|    \\/     M anipulation  |                                                 |
\*---------------------------------------------------------------------------*/
FoamFile
{
    version     2.0;
    format      ascii;
    class       volScalarField;
    location    "1";
    object      sigmaEq;
}
// * * * * * * * * * * * * * * * * * * * * * * * * * * * * * * * * * * * * * //

dimensions      [1 -1 -2 0 0 0 0];


internalField   nonuniform List<scalar> 
32768
(
2.79255e+18
5.40216e+18
6.69742e+18
7.51076e+18
8.11947e+18
8.60439e+18
8.98998e+18
9.28329e+18
9.4859e+18
9.59796e+18
9.61958e+18
9.55137e+18
9.39461e+18
9.15133e+18
8.8243e+18
8.41706e+18
7.93382e+18
7.37942e+18
6.7593e+18
6.07957e+18
5.34734e+18
4.57206e+18
3.76848e+18
2.96159e+18
2.1872e+18
1.45534e+18
6.97812e+17
9.59022e+17
1.76927e+18
2.35779e+18
2.44513e+18
1.36952e+18
5.10534e+18
9.12178e+18
1.15411e+19
1.30379e+19
1.41028e+19
1.49111e+19
1.55252e+19
1.5968e+19
1.62476e+19
1.63679e+19
1.6331e+19
1.61397e+19
1.57972e+19
1.53079e+19
1.46775e+19
1.39124e+19
1.30208e+19
1.20122e+19
1.08981e+19
9.69322e+18
8.41645e+18
7.09339e+18
5.7601e+18
4.4738e+18
3.34118e+18
2.50941e+18
1.87192e+18
1.49919e+18
2.50384e+18
3.63877e+18
3.88376e+18
2.5732e+18
5.96565e+18
1.08995e+19
1.411e+19
1.61109e+19
1.74884e+19
1.84913e+19
1.9221e+19
1.97194e+19
2.00051e+19
2.00874e+19
1.99724e+19
1.96655e+19
1.91724e+19
1.84996e+19
1.76548e+19
1.66469e+19
1.54864e+19
1.41861e+19
1.27616e+19
1.12328e+19
9.62479e+18
7.96986e+18
6.31577e+18
4.7598e+18
3.5446e+18
3.03075e+18
2.89742e+18
2.32584e+18
2.15394e+18
3.41215e+18
3.97639e+18
2.71919e+18
5.73785e+18
1.07117e+19
1.41051e+19
1.62096e+19
1.75851e+19
1.85127e+19
1.91228e+19
1.94768e+19
1.96056e+19
1.95266e+19
1.92516e+19
1.87901e+19
1.81508e+19
1.7343e+19
1.63763e+19
1.52616e+19
1.40117e+19
1.26417e+19
1.11704e+19
9.6221e+18
8.02896e+18
6.43974e+18
4.95019e+18
3.79729e+18
3.44152e+18
3.97549e+18
4.57972e+18
4.33969e+18
3.10785e+18
2.37668e+18
2.85131e+18
2.11836e+18
4.95836e+18
9.40998e+18
1.25229e+19
1.43873e+19
1.54833e+19
1.60957e+19
1.63752e+19
1.64022e+19
1.62217e+19
1.58617e+19
1.53417e+19
1.46773e+19
1.3882e+19
1.29692e+19
1.19528e+19
1.08483e+19
9.67481e+18
8.45716e+18
7.23094e+18
6.05173e+18
5.01437e+18
4.28351e+18
4.08513e+18
4.53483e+18
5.46822e+18
6.53653e+18
7.28463e+18
7.19201e+18
5.90122e+18
3.75675e+18
1.92502e+18
1.05383e+18
3.98977e+18
7.66318e+18
1.02389e+19
1.16505e+19
1.22883e+19
1.24317e+19
1.2251e+19
1.18484e+19
1.12886e+19
1.06163e+19
9.86644e+18
9.0697e+18
8.25727e+18
7.46433e+18
6.73372e+18
6.11861e+18
5.68069e+18
5.47825e+18
5.54375e+18
5.86754e+18
6.40644e+18
7.10836e+18
7.92868e+18
8.82544e+18
9.73154e+18
1.05085e+19
1.09049e+19
1.05727e+19
9.19714e+18
6.76227e+18
3.85515e+18
1.10476e+18
2.98149e+18
5.86181e+18
7.86684e+18
8.77467e+18
8.90407e+18
8.54879e+18
7.92037e+18
7.17356e+18
6.43663e+18
5.83151e+18
5.47507e+18
5.45084e+18
5.76877e+18
6.36519e+18
7.14759e+18
8.03312e+18
8.96009e+18
9.88535e+18
1.07793e+19
1.16224e+19
1.2404e+19
1.312e+19
1.37697e+19
1.43441e+19
1.48056e+19
1.50582e+19
1.49225e+19
1.41447e+19
1.24697e+19
9.79109e+18
6.33969e+18
2.7763e+18
1.80849e+18
4.07115e+18
5.72808e+18
6.262e+18
5.97376e+18
5.25752e+18
4.49619e+18
4.10864e+18
4.42246e+18
5.38603e+18
6.72201e+18
8.21497e+18
9.74375e+18
1.12404e+19
1.26635e+19
1.39855e+19
1.5187e+19
1.62539e+19
1.71763e+19
1.79485e+19
1.8569e+19
1.90402e+19
1.93642e+19
1.95349e+19
1.95221e+19
1.92514e+19
1.85876e+19
1.73383e+19
1.52947e+19
1.23138e+19
8.41894e+18
4.10948e+18
7.92658e+17
2.57254e+18
3.93318e+18
4.36312e+18
3.87311e+18
3.18254e+18
3.2443e+18
4.4418e+18
6.25217e+18
8.27275e+18
1.03264e+19
1.23267e+19
1.42234e+19
1.5984e+19
1.75855e+19
1.90112e+19
2.02487e+19
2.12888e+19
2.21259e+19
2.27575e+19
2.31843e+19
2.34098e+19
2.34363e+19
2.32585e+19
2.28519e+19
2.21582e+19
2.1074e+19
1.94505e+19
1.71143e+19
1.39071e+19
9.72697e+18
4.92091e+18
3.87592e+17
1.70416e+18
2.88785e+18
3.2209e+18
2.71285e+18
2.49693e+18
3.75616e+18
5.85174e+18
8.19013e+18
1.05524e+19
1.284e+19
1.49982e+19
1.69923e+19
1.8799e+19
2.04017e+19
2.17887e+19
2.29514e+19
2.38846e+19
2.45855e+19
2.50541e+19
2.5293e+19
2.53062e+19
2.50964e+19
2.46592e+19
2.39753e+19
2.29996e+19
2.16528e+19
1.98192e+19
1.73554e+19
1.41055e+19
9.91239e+18
5.03969e+18
5.24941e+17
1.50073e+18
2.81257e+18
3.34642e+18
2.61366e+18
2.33111e+18
4.07682e+18
6.50709e+18
9.01631e+18
1.14396e+19
1.37103e+19
1.57943e+19
1.76717e+19
1.933e+19
2.07614e+19
2.19612e+19
2.2927e+19
2.36581e+19
2.41561e+19
2.4424e+19
2.44664e+19
2.42887e+19
2.38942e+19
2.32802e+19
2.24323e+19
2.13162e+19
1.9872e+19
1.80112e+19
1.56204e+19
1.25685e+19
8.72128e+18
4.33209e+18
7.27596e+17
2.00705e+18
3.55484e+18
4.53273e+18
4.00561e+18
2.63664e+18
3.60553e+18
6.16599e+18
8.72346e+18
1.10491e+19
1.31151e+19
1.4924e+19
1.64831e+19
1.78002e+19
1.88824e+19
1.97366e+19
2.03693e+19
2.07871e+19
2.0997e+19
2.10063e+19
2.08229e+19
2.04537e+19
1.99038e+19
1.91728e+19
1.8251e+19
1.71139e+19
1.57184e+19
1.40014e+19
1.18847e+19
9.29e+18
6.18222e+18
2.80141e+18
1.62111e+18
3.51686e+18
5.27129e+18
6.44541e+18
6.30574e+18
4.61195e+18
3.14703e+18
4.94717e+18
7.54645e+18
9.74e+18
1.14966e+19
1.28841e+19
1.39615e+19
1.4772e+19
1.5348e+19
1.57141e+19
1.58901e+19
1.58926e+19
1.57361e+19
1.54337e+19
1.4997e+19
1.44364e+19
1.37596e+19
1.29699e+19
1.20634e+19
1.10268e+19
9.83606e+18
8.4604e+18
6.87714e+18
5.10898e+18
3.26389e+18
1.07734e+18
3.27718e+18
6.09646e+18
8.0486e+18
9.18704e+18
9.17854e+18
7.62756e+18
4.89475e+18
3.60344e+18
5.67169e+18
7.84392e+18
9.33817e+18
1.02789e+19
1.08122e+19
1.10432e+19
1.10457e+19
1.08734e+19
1.0567e+19
1.0159e+19
9.67672e+18
9.14414e+18
8.58317e+18
8.01423e+18
7.4565e+18
6.92767e+18
6.44408e+18
6.02205e+18
5.68129e+18
5.44768e+18
5.33979e+18
5.28738e+18
4.84293e+18
2.8655e+18
5.36486e+18
9.3665e+18
1.15945e+19
1.25873e+19
1.24671e+19
1.0994e+19
8.10749e+18
4.67077e+18
3.65534e+18
5.48537e+18
6.86498e+18
7.43749e+18
7.45612e+18
7.13607e+18
6.63725e+18
6.08917e+18
5.60854e+18
5.30183e+18
5.24726e+18
5.46698e+18
5.92216e+18
6.54158e+18
7.25377e+18
8.00165e+18
8.74356e+18
9.44884e+18
1.00902e+19
1.06282e+19
1.09724e+19
1.08665e+19
9.55041e+18
5.77045e+18
7.58291e+18
1.2913e+19
1.54939e+19
1.63133e+19
1.5934e+19
1.43416e+19
1.14625e+19
7.56899e+18
3.89553e+18
3.22311e+18
4.45582e+18
4.87602e+18
4.56335e+18
3.95547e+18
3.525e+18
3.72135e+18
4.61206e+18
5.92051e+18
7.40525e+18
8.9319e+18
1.0426e+19
1.18423e+19
1.31503e+19
1.43278e+19
1.53566e+19
1.62176e+19
1.68821e+19
1.72906e+19
1.72996e+19
1.6534e+19
1.39922e+19
8.33061e+18
9.43904e+18
1.59437e+19
1.89108e+19
1.96167e+19
1.8983e+19
1.72083e+19
1.42957e+19
1.03837e+19
6.04564e+18
2.71111e+18
2.3904e+18
2.80354e+18
2.4523e+18
2.29006e+18
3.31114e+18
5.11015e+18
7.17853e+18
9.30709e+18
1.13965e+19
1.33888e+19
1.52452e+19
1.69378e+19
1.84455e+19
1.975e+19
2.08336e+19
2.16734e+19
2.22297e+19
2.24202e+19
2.20545e+19
2.06663e+19
1.70988e+19
1.00252e+19
1.05066e+19
1.77944e+19
2.10826e+19
2.1748e+19
2.09442e+19
1.90351e+19
1.61099e+19
1.22808e+19
7.90955e+18
3.82157e+18
1.55251e+18
1.48926e+18
1.35244e+18
2.30569e+18
4.35733e+18
6.7556e+18
9.23261e+18
1.1666e+19
1.3986e+19
1.61483e+19
1.81224e+19
1.98862e+19
2.14223e+19
2.27148e+19
2.37459e+19
2.44895e+19
2.4898e+19
2.48727e+19
2.41938e+19
2.23503e+19
1.81608e+19
1.04723e+19
1.04305e+19
1.78571e+19
2.12824e+19
2.19614e+19
2.11118e+19
1.91951e+19
1.63679e+19
1.27453e+19
8.59135e+18
4.50235e+18
1.79791e+18
1.70264e+18
1.47423e+18
2.41052e+18
4.75986e+18
7.38018e+18
9.9818e+18
1.24585e+19
1.47581e+19
1.68511e+19
1.87196e+19
2.03511e+19
2.17358e+19
2.28633e+19
2.37189e+19
2.42769e+19
2.44874e+19
2.42458e+19
2.33269e+19
2.12345e+19
1.69124e+19
9.52171e+18
9.05702e+18
1.58581e+19
1.91314e+19
1.98254e+19
1.90428e+19
1.72649e+19
1.46856e+19
1.1429e+19
7.71197e+18
4.04443e+18
2.0316e+18
2.85941e+18
2.87929e+18
2.40808e+18
4.208e+18
6.91953e+18
9.51542e+18
1.18562e+19
1.39255e+19
1.5728e+19
1.72717e+19
1.85636e+19
1.9608e+19
2.04051e+19
2.09474e+19
2.12146e+19
2.11608e+19
2.06887e+19
1.95952e+19
1.74631e+19
1.3504e+19
7.27197e+18
6.4778e+18
1.19236e+19
1.46923e+19
1.53419e+19
1.47011e+19
1.31933e+19
1.10188e+19
8.31712e+18
5.33009e+18
2.84899e+18
3.11301e+18
4.68376e+18
5.0738e+18
3.90849e+18
3.32421e+18
5.5203e+18
8.1135e+18
1.02675e+19
1.19852e+19
1.33372e+19
1.43821e+19
1.51622e+19
1.57062e+19
1.60311e+19
1.61417e+19
1.60278e+19
1.5655e+19
1.49468e+19
1.37502e+19
1.1787e+19
8.63555e+18
4.11676e+18
3.16044e+18
6.89383e+18
8.79746e+18
9.28616e+18
8.82883e+18
7.7364e+18
6.22499e+18
4.58323e+18
3.55292e+18
4.20751e+18
5.92276e+18
7.42474e+18
7.85882e+18
6.71628e+18
4.44406e+18
3.85003e+18
6.02545e+18
8.08829e+18
9.47556e+18
1.03281e+19
1.07934e+19
1.09756e+19
1.09441e+19
1.07431e+19
1.03972e+19
9.91389e+18
9.28178e+18
8.46707e+18
7.4135e+18
6.06797e+18
4.39146e+18
1.53463e+18
2.18126e+18
4.63677e+18
5.32941e+18
5.49053e+18
5.45298e+18
5.42246e+18
5.61789e+18
6.21993e+18
7.2694e+18
8.62569e+18
9.99933e+18
1.09881e+19
1.11196e+19
9.96253e+18
7.40404e+18
4.38214e+18
3.84633e+18
5.61075e+18
6.83547e+18
7.28723e+18
7.23181e+18
6.88747e+18
6.41073e+18
5.9188e+18
5.5062e+18
5.25155e+18
5.21379e+18
5.42293e+18
5.86657e+18
6.4095e+18
6.37769e+18
3.96398e+18
5.50546e+18
9.05503e+18
1.01019e+19
1.03806e+19
1.06278e+19
1.10053e+19
1.15385e+19
1.22207e+19
1.30186e+19
1.38502e+19
1.45589e+19
1.48987e+19
1.45491e+19
1.31805e+19
1.06017e+19
7.04338e+18
3.75993e+18
3.29606e+18
4.34484e+18
4.62693e+18
4.2965e+18
3.83999e+18
3.72828e+18
4.22668e+18
5.23058e+18
6.50997e+18
7.90416e+18
9.30865e+18
1.05991e+19
1.14575e+19
1.08503e+19
6.86686e+18
8.52379e+18
1.40356e+19
1.61809e+19
1.68693e+19
1.71922e+19
1.74613e+19
1.77495e+19
1.80605e+19
1.8368e+19
1.86119e+19
1.86832e+19
1.84116e+19
1.75713e+19
1.59191e+19
1.32833e+19
9.72126e+18
5.75725e+18
2.73591e+18
2.30867e+18
2.59172e+18
2.49363e+18
2.96608e+18
4.3214e+18
6.11637e+18
8.05049e+18
9.98862e+18
1.18538e+19
1.35634e+19
1.49499e+19
1.55654e+19
1.41408e+19
8.78412e+18
1.03812e+19
1.73729e+19
2.04738e+19
2.15665e+19
2.19695e+19
2.21305e+19
2.21864e+19
2.21688e+19
2.20681e+19
2.18442e+19
2.14217e+19
2.06817e+19
1.94653e+19
1.7597e+19
1.49412e+19
1.15024e+19
7.56918e+18
3.87112e+18
1.58509e+18
1.30394e+18
1.96019e+18
3.53957e+18
5.63925e+18
7.88675e+18
1.01133e+19
1.22419e+19
1.42169e+19
1.59479e+19
1.72256e+19
1.75191e+19
1.548e+19
9.42623e+18
1.0776e+19
1.83743e+19
2.2032e+19
2.3405e+19
2.38711e+19
2.39588e+19
2.38532e+19
2.36116e+19
2.32402e+19
2.27161e+19
2.19889e+19
2.09775e+19
1.95716e+19
1.76473e+19
1.51033e+19
1.19274e+19
8.29356e+18
4.6759e+18
1.91345e+18
8.29314e+17
1.65647e+18
3.72111e+18
6.14423e+18
8.52515e+18
1.07461e+19
1.2781e+19
1.46081e+19
1.61458e+19
1.71713e+19
1.7138e+19
1.47831e+19
8.80026e+18
9.7082e+18
1.69277e+19
2.06212e+19
2.20678e+19
2.25357e+19
2.25634e+19
2.23585e+19
2.1994e+19
2.14879e+19
2.08306e+19
1.99904e+19
1.89137e+19
1.7526e+19
1.57421e+19
1.34895e+19
1.07524e+19
7.63764e+18
4.46461e+18
1.89952e+18
1.01177e+18
1.13221e+18
2.94004e+18
5.5834e+18
8.02337e+18
1.00688e+19
1.17923e+19
1.32553e+19
1.44191e+19
1.50841e+19
1.47558e+19
1.23935e+19
7.15543e+18
7.47217e+18
1.34379e+19
1.66404e+19
1.79218e+19
1.83036e+19
1.82649e+19
1.80042e+19
1.75981e+19
1.7071e+19
1.64221e+19
1.56337e+19
1.4672e+19
1.34887e+19
1.20275e+19
1.0239e+19
8.109e+18
5.70459e+18
3.25327e+18
1.4264e+18
1.52836e+18
1.61641e+18
1.71224e+18
3.99499e+18
6.52453e+18
8.38954e+18
9.69542e+18
1.06631e+19
1.13481e+19
1.16113e+19
1.10664e+19
8.97625e+18
4.93556e+18
4.64568e+18
8.81232e+18
1.11244e+19
1.20447e+19
1.22703e+19
1.21639e+19
1.18871e+19
1.15071e+19
1.10491e+19
1.05176e+19
9.90439e+18
9.1901e+18
8.34566e+18
7.33646e+18
6.1324e+18
4.72748e+18
3.18034e+18
1.75063e+18
1.42639e+18
2.19675e+18
2.51906e+18
1.94328e+18
2.20565e+18
4.29957e+18
6.04475e+18
6.97868e+18
7.45569e+18
7.68321e+18
7.6122e+18
7.00031e+18
5.42522e+18
2.73297e+18
2.08028e+18
4.42797e+18
5.72622e+18
6.22583e+18
6.2991e+18
6.16595e+18
5.93323e+18
5.64957e+18
5.33581e+18
4.99865e+18
4.63595e+18
4.23848e+18
3.79165e+18
3.27955e+18
2.69471e+18
2.06231e+18
1.51059e+18
1.38742e+18
1.8387e+18
2.42915e+18
2.74686e+18
2.52152e+18
1.90424e+18
2.3315e+18
3.53855e+18
4.19118e+18
4.32428e+18
4.26794e+18
4.05581e+18
3.59228e+18
2.72067e+18
1.21954e+18
6.74308e+17
1.63281e+18
2.22677e+18
2.4627e+18
2.49032e+18
2.41577e+18
2.29573e+18
2.15867e+18
2.01836e+18
1.88048e+18
1.74554e+18
1.61065e+18
1.472e+18
1.32966e+18
1.1965e+18
1.11073e+18
1.13519e+18
1.3083e+18
1.59127e+18
1.88712e+18
2.07108e+18
2.01085e+18
1.64745e+18
1.30896e+18
1.69896e+18
2.08145e+18
2.06883e+18
1.94579e+18
1.76156e+18
1.50575e+18
1.18558e+18
5.46471e+17
5.66261e+18
1.01223e+19
1.26122e+19
1.42257e+19
1.54499e+19
1.64345e+19
1.72259e+19
1.78377e+19
1.8273e+19
1.85323e+19
1.86154e+19
1.85236e+19
1.82587e+19
1.78244e+19
1.72255e+19
1.64684e+19
1.55608e+19
1.45123e+19
1.33339e+19
1.20378e+19
1.06365e+19
9.14207e+18
7.56764e+18
5.94077e+18
4.33067e+18
2.86521e+18
1.60679e+18
1.98751e+18
3.31983e+18
4.46456e+18
4.71469e+18
2.82115e+18
9.01148e+18
8.21599e+18
1.01295e+19
1.16358e+19
1.27678e+19
1.36506e+19
1.43443e+19
1.48737e+19
1.52493e+19
1.54754e+19
1.55549e+19
1.54901e+19
1.52841e+19
1.49407e+19
1.44648e+19
1.3863e+19
1.31431e+19
1.23151e+19
1.13904e+19
1.0381e+19
9.29707e+18
8.14487e+18
6.92672e+18
5.65334e+18
4.38561e+18
3.2867e+18
2.6113e+18
2.69479e+18
2.6869e+18
2.98885e+18
2.90656e+18
4.32976e+18
1.09107e+19
8.80049e+18
9.97615e+18
1.1396e+19
1.26214e+19
1.36451e+19
1.4492e+19
1.51773e+19
1.57081e+19
1.60874e+19
1.63167e+19
1.63974e+19
1.63311e+19
1.61205e+19
1.57691e+19
1.52817e+19
1.46638e+19
1.39222e+19
1.30637e+19
1.20947e+19
1.10198e+19
9.84046e+18
8.55608e+18
7.17358e+18
5.73589e+18
4.35629e+18
3.41741e+18
3.89273e+18
4.113e+18
3.433e+18
2.7704e+18
4.81939e+18
1.12115e+19
9.98609e+18
1.14081e+19
1.31106e+19
1.46649e+19
1.6024e+19
1.71921e+19
1.81745e+19
1.89727e+19
1.95866e+19
2.00151e+19
2.02575e+19
2.03141e+19
2.0186e+19
1.98756e+19
1.93863e+19
1.87228e+19
1.78908e+19
1.68965e+19
1.57463e+19
1.44452e+19
1.29951e+19
1.13941e+19
9.64739e+18
7.80242e+18
6.01351e+18
4.66744e+18
4.69202e+18
5.70851e+18
5.203e+18
3.47264e+18
4.16577e+18
1.04131e+19
1.04356e+19
1.24064e+19
1.44905e+19
1.63759e+19
1.80346e+19
1.94731e+19
2.06967e+19
2.17065e+19
2.25016e+19
2.30802e+19
2.34408e+19
2.35831e+19
2.35074e+19
2.32157e+19
2.27113e+19
2.19989e+19
2.10846e+19
1.99756e+19
1.86798e+19
1.72032e+19
1.55485e+19
1.37157e+19
1.1715e+19
9.60525e+18
7.56673e+18
5.98803e+18
5.45629e+18
6.24283e+18
6.73774e+18
4.7552e+18
2.78046e+18
8.99608e+18
9.94158e+18
1.22795e+19
1.45908e+19
1.66467e+19
1.84394e+19
1.99862e+19
2.12992e+19
2.23842e+19
2.3243e+19
2.38756e+19
2.42815e+19
2.44606e+19
2.44137e+19
2.41428e+19
2.36512e+19
2.2944e+19
2.20277e+19
2.09103e+19
1.96003e+19
1.81047e+19
1.64282e+19
1.45757e+19
1.25668e+19
1.04718e+19
8.4743e+18
6.92637e+18
6.23742e+18
6.45644e+18
7.04434e+18
6.07685e+18
1.91163e+18
7.30203e+18
8.82345e+18
1.11481e+19
1.34234e+19
1.54241e+19
1.71338e+19
1.85789e+19
1.97839e+19
2.07643e+19
2.15292e+19
2.20833e+19
2.24291e+19
2.25686e+19
2.25036e+19
2.2237e+19
2.17727e+19
2.11161e+19
2.02742e+19
1.92554e+19
1.80687e+19
1.67228e+19
1.52264e+19
1.35924e+19
1.18531e+19
1.00911e+19
8.48359e+18
7.31314e+18
6.81638e+18
6.89412e+18
7.09813e+18
6.70618e+18
3.96808e+18
5.4021e+18
7.61718e+18
9.429e+18
1.14036e+19
1.31439e+19
1.45699e+19
1.57114e+19
1.66119e+19
1.73048e+19
1.78119e+19
1.81466e+19
1.83172e+19
1.83292e+19
1.81869e+19
1.78949e+19
1.74583e+19
1.68837e+19
1.6179e+19
1.53542e+19
1.44203e+19
1.33903e+19
1.22805e+19
1.11167e+19
9.94763e+18
8.86412e+18
8.00814e+18
7.52402e+18
7.42999e+18
7.53938e+18
7.5669e+18
7.27532e+18
6.73056e+18
3.29248e+18
6.39784e+18
7.49848e+18
8.97789e+18
1.03809e+19
1.14216e+19
1.21329e+19
1.25952e+19
1.28746e+19
1.30159e+19
1.30473e+19
1.29861e+19
1.28436e+19
1.26278e+19
1.2346e+19
1.20058e+19
1.16161e+19
1.11876e+19
1.07331e+19
1.02679e+19
9.80974e+18
9.38053e+18
9.008e+18
8.72688e+18
8.57334e+18
8.56551e+18
8.67169e+18
8.78806e+18
8.75771e+18
8.45842e+18
8.03895e+18
8.67403e+18
1.48315e+18
4.89163e+18
5.56274e+18
6.36382e+18
7.57734e+18
8.33121e+18
8.6418e+18
8.67894e+18
8.58134e+18
8.4436e+18
8.32406e+18
8.25495e+18
8.25064e+18
8.31385e+18
8.44016e+18
8.62129e+18
8.8473e+18
9.10801e+18
9.39385e+18
9.69631e+18
1.00083e+19
1.03238e+19
1.06377e+19
1.09419e+19
1.12202e+19
1.14378e+19
1.15301e+19
1.13974e+19
1.09197e+19
1.00306e+19
9.02096e+18
9.67668e+18
7.37639e+17
3.49954e+18
4.06364e+18
3.98163e+18
5.05166e+18
5.81773e+18
5.94314e+18
5.8044e+18
5.72345e+18
5.89846e+18
6.38121e+18
7.1139e+18
8.00269e+18
8.96528e+18
9.94252e+18
1.08947e+19
1.17952e+19
1.26263e+19
1.3376e+19
1.4036e+19
1.46009e+19
1.50667e+19
1.54287e+19
1.56781e+19
1.5796e+19
1.57457e+19
1.54646e+19
1.48594e+19
1.38126e+19
1.22263e+19
1.02486e+19
9.58348e+18
1.11889e+18
3.17967e+18
3.45711e+18
2.93344e+18
3.70339e+18
4.71404e+18
4.74951e+18
4.70604e+18
5.16954e+18
6.23476e+18
7.67607e+18
9.27182e+18
1.08874e+19
1.24483e+19
1.39122e+19
1.52538e+19
1.64571e+19
1.75112e+19
1.84091e+19
1.91459e+19
1.97183e+19
2.01238e+19
2.03584e+19
2.04137e+19
2.0272e+19
1.98998e+19
1.92407e+19
1.82081e+19
1.668e+19
1.44964e+19
1.14903e+19
8.33138e+18
2.03966e+18
4.21845e+18
4.06067e+18
3.42348e+18
3.82745e+18
5.33481e+18
5.65082e+18
5.24148e+18
5.79258e+18
7.28139e+18
9.20521e+18
1.12365e+19
1.32216e+19
1.50885e+19
1.68014e+19
1.83406e+19
1.9694e+19
2.0854e+19
2.18149e+19
2.25733e+19
2.31263e+19
2.34715e+19
2.3605e+19
2.3519e+19
2.31975e+19
2.26116e+19
2.1712e+19
2.04204e+19
1.86121e+19
1.60683e+19
1.22998e+19
6.20815e+18
3.88699e+18
5.67406e+18
5.33735e+18
4.5766e+18
4.62573e+18
5.86542e+18
7.15786e+18
6.8338e+18
6.53201e+18
7.77383e+18
9.79975e+18
1.20061e+19
1.41487e+19
1.61375e+19
1.79377e+19
1.95347e+19
2.09215e+19
2.20941e+19
2.30496e+19
2.37858e+19
2.43011e+19
2.45932e+19
2.46587e+19
2.44907e+19
2.40757e+19
2.33893e+19
2.23901e+19
2.10091e+19
1.91253e+19
1.64868e+19
1.24147e+19
4.74104e+18
6.66295e+18
6.8063e+18
6.37197e+18
5.63605e+18
5.5428e+18
6.24805e+18
7.52575e+18
8.22676e+18
7.50807e+18
7.64987e+18
9.29828e+18
1.13829e+19
1.34296e+19
1.52994e+19
1.69589e+19
1.8404e+19
1.96375e+19
2.06627e+19
2.14819e+19
2.20961e+19
2.25057e+19
2.27101e+19
2.27067e+19
2.24904e+19
2.20504e+19
2.13676e+19
2.04087e+19
1.91163e+19
1.73819e+19
1.49658e+19
1.12775e+19
6.53258e+18
9.972e+18
7.18831e+18
6.63451e+18
6.2486e+18
6.3351e+18
6.84003e+18
7.50742e+18
8.24803e+18
8.16282e+18
7.39911e+18
8.12376e+18
9.87812e+18
1.16742e+19
1.32561e+19
1.45951e+19
1.57102e+19
1.66241e+19
1.73535e+19
1.79095e+19
1.82989e+19
1.85255e+19
1.85911e+19
1.84953e+19
1.8235e+19
1.78031e+19
1.71854e+19
1.63568e+19
1.52719e+19
1.38428e+19
1.19006e+19
9.36305e+18
1.03379e+19
1.32843e+19
7.18245e+18
6.43485e+18
6.6738e+18
7.16001e+18
7.66487e+18
7.97366e+18
8.02536e+18
7.85281e+18
6.93425e+18
6.45659e+18
7.66289e+18
9.16461e+18
1.03605e+19
1.12348e+19
1.18601e+19
1.23e+19
1.25975e+19
1.27794e+19
1.28611e+19
1.2852e+19
1.27569e+19
1.25781e+19
1.23147e+19
1.19625e+19
1.15109e+19
1.0939e+19
1.02059e+19
9.24116e+18
8.01505e+18
7.52115e+18
1.39884e+19
1.59677e+19
7.62303e+18
6.99366e+18
7.89431e+18
8.66907e+18
9.09068e+18
9.06219e+18
8.55619e+18
7.65295e+18
6.39454e+18
4.80023e+18
5.03934e+18
6.48894e+18
7.45623e+18
7.90766e+18
8.03958e+18
8.0067e+18
7.90907e+18
7.80612e+18
7.73016e+18
7.69594e+18
7.70678e+18
7.75823e+18
7.83976e+18
7.93463e+18
8.01734e+18
8.04756e+18
7.96019e+18
7.66889e+18
7.23675e+18
8.17446e+18
1.64583e+19
1.73979e+19
9.45095e+18
9.53875e+18
1.06399e+19
1.12963e+19
1.14009e+19
1.09364e+19
9.90387e+18
8.38128e+18
6.49729e+18
4.2579e+18
2.54801e+18
3.96227e+18
5.10815e+18
5.3961e+18
5.29717e+18
5.18053e+18
5.27558e+18
5.66116e+18
6.2952e+18
7.08805e+18
7.95638e+18
8.83819e+18
9.68861e+18
1.04713e+19
1.11489e+19
1.16721e+19
1.19636e+19
1.19086e+19
1.14361e+19
1.13394e+19
1.71638e+19
1.714e+19
1.23379e+19
1.34442e+19
1.44727e+19
1.47882e+19
1.445e+19
1.35002e+19
1.19641e+19
9.91891e+18
7.53096e+18
4.99736e+18
2.60036e+18
2.88061e+18
4.31736e+18
4.53391e+18
4.53661e+18
4.95271e+18
5.93121e+18
7.28098e+18
8.78838e+18
1.03184e+19
1.17947e+19
1.3172e+19
1.44191e+19
1.55085e+19
1.6407e+19
1.70639e+19
1.73927e+19
1.72419e+19
1.63807e+19
1.478e+19
1.59026e+19
1.50691e+19
1.51401e+19
1.72524e+19
1.82061e+19
1.82053e+19
1.74814e+19
1.61351e+19
1.42166e+19
1.18059e+19
9.07559e+18
6.32548e+18
4.06427e+18
3.62993e+18
5.22496e+18
5.70427e+18
5.36412e+18
5.9033e+18
7.32186e+18
9.16958e+18
1.11318e+19
1.3053e+19
1.48579e+19
1.65056e+19
1.79688e+19
1.92219e+19
2.02319e+19
2.09455e+19
2.12675e+19
2.10174e+19
1.98389e+19
1.70424e+19
1.29084e+19
1.15304e+19
1.68747e+19
1.98015e+19
2.07384e+19
2.05425e+19
1.95845e+19
1.80147e+19
1.59068e+19
1.33446e+19
1.04912e+19
7.65596e+18
5.38868e+18
4.58851e+18
5.7552e+18
7.22281e+18
7.01634e+18
6.766e+18
7.94147e+18
9.86621e+18
1.19812e+19
1.40453e+19
1.59634e+19
1.76939e+19
1.92132e+19
2.04992e+19
2.15214e+19
2.22279e+19
2.25222e+19
2.22113e+19
2.08666e+19
1.73821e+19
8.9892e+18
7.74646e+18
1.68888e+19
2.02596e+19
2.1207e+19
2.09488e+19
1.99348e+19
1.83464e+19
1.62737e+19
1.38043e+19
1.10893e+19
8.41323e+18
6.27913e+18
5.37073e+18
5.91219e+18
7.37535e+18
8.25872e+18
7.67492e+18
7.83173e+18
9.385e+18
1.13657e+19
1.33272e+19
1.51281e+19
1.67265e+19
1.81072e+19
1.9257e+19
2.01532e+19
2.07509e+19
2.09616e+19
2.05992e+19
1.92238e+19
1.56132e+19
6.23261e+18
6.93174e+18
1.50001e+19
1.82787e+19
1.92035e+19
1.89825e+19
1.80689e+19
1.66515e+19
1.48288e+19
1.26921e+19
1.03858e+19
8.17243e+18
6.49053e+18
5.82378e+18
6.16409e+18
7.01624e+18
8.0203e+18
8.13493e+18
7.47914e+18
8.12232e+18
9.72327e+18
1.13854e+19
1.28639e+19
1.41209e+19
1.51622e+19
1.59931e+19
1.66056e+19
1.69686e+19
1.70096e+19
1.65654e+19
1.52426e+19
1.20478e+19
7.57625e+18
1.01641e+19
1.15904e+19
1.40834e+19
1.48993e+19
1.4773e+19
1.40786e+19
1.29906e+19
1.16114e+19
1.00414e+19
8.43408e+18
7.04446e+18
6.21287e+18
6.12622e+18
6.54479e+18
7.05037e+18
7.42063e+18
7.57001e+18
6.89923e+18
6.48081e+18
7.52001e+18
8.844e+18
9.90849e+18
1.06911e+19
1.12463e+19
1.16174e+19
1.18229e+19
1.18519e+19
1.16508e+19
1.10826e+19
9.8351e+18
7.59119e+18
1.08739e+19
1.38983e+19
7.95594e+18
8.73826e+18
9.34581e+18
9.37446e+18
9.02908e+18
8.4591e+18
7.77817e+18
7.10853e+18
6.6034e+18
6.41642e+18
6.60003e+18
7.0273e+18
7.45222e+18
7.64351e+18
7.48932e+18
7.00496e+18
6.1494e+18
4.82908e+18
4.96464e+18
6.16093e+18
6.95862e+18
7.31301e+18
7.3913e+18
7.31844e+18
7.16436e+18
6.94783e+18
6.62827e+18
6.06956e+18
5.03055e+18
4.64093e+18
1.34653e+19
1.62715e+19
7.00465e+18
5.7751e+18
6.16639e+18
6.51601e+18
6.75637e+18
6.96621e+18
7.2069e+18
7.51656e+18
7.90788e+18
8.35946e+18
8.80771e+18
9.14766e+18
9.2493e+18
8.99231e+18
8.31679e+18
7.26113e+18
5.89653e+18
4.11282e+18
2.50442e+18
3.53955e+18
4.50319e+18
4.74965e+18
4.69186e+18
4.64783e+18
4.78664e+18
5.11841e+18
5.53106e+18
5.82843e+18
5.8179e+18
6.49712e+18
1.44777e+19
1.66272e+19
9.47767e+18
9.0263e+18
9.54687e+18
1.0026e+19
1.04313e+19
1.0797e+19
1.11392e+19
1.14582e+19
1.17405e+19
1.1956e+19
1.2053e+19
1.19578e+19
1.15811e+19
1.08392e+19
9.68791e+18
8.16376e+18
6.3844e+18
4.41869e+18
2.14025e+18
1.80878e+18
3.23063e+18
3.59615e+18
3.90434e+18
4.58859e+18
5.64304e+18
6.85558e+18
8.02375e+18
8.94788e+18
9.37971e+18
9.47648e+18
1.37632e+19
1.49006e+19
1.20125e+19
1.29665e+19
1.37913e+19
1.4315e+19
1.46652e+19
1.49083e+19
1.50666e+19
1.5142e+19
1.51239e+19
1.49894e+19
1.47016e+19
1.42082e+19
1.34461e+19
1.23547e+19
1.09005e+19
9.11038e+18
7.09888e+18
5.03344e+18
3.01043e+18
1.80894e+18
3.39007e+18
4.13735e+18
4.32266e+18
5.29989e+18
6.7677e+18
8.34613e+18
9.80399e+18
1.09503e+19
1.14822e+19
1.10303e+19
1.15928e+19
1.14965e+19
1.26559e+19
1.45324e+19
1.55351e+19
1.60555e+19
1.63323e+19
1.64603e+19
1.64709e+19
1.63701e+19
1.61522e+19
1.58031e+19
1.52988e+19
1.46056e+19
1.36822e+19
1.24879e+19
1.09989e+19
9.23294e+18
7.27675e+18
5.29326e+18
3.45988e+18
2.03776e+18
2.76382e+18
4.64948e+18
5.11653e+18
5.5486e+18
6.82949e+18
8.32565e+18
9.71087e+18
1.08021e+19
1.12903e+19
1.05606e+19
8.53401e+18
7.25377e+18
1.07992e+19
1.28901e+19
1.38332e+19
1.42503e+19
1.4419e+19
1.44446e+19
1.43621e+19
1.41801e+19
1.38965e+19
1.35033e+19
1.29867e+19
1.23266e+19
1.1498e+19
1.04764e+19
9.24713e+18
7.82273e+18
6.26407e+18
4.69703e+18
3.28534e+18
2.12426e+18
1.61936e+18
3.20189e+18
4.96124e+18
5.47905e+18
6.07319e+18
7.03584e+18
7.95797e+18
8.68658e+18
8.95858e+18
8.201e+18
5.3186e+18
3.47056e+18
7.14256e+18
8.90836e+18
9.66273e+18
9.94365e+18
9.99493e+18
9.9213e+18
9.76613e+18
9.54599e+18
9.26514e+18
8.92074e+18
8.50454e+18
8.00377e+18
7.40314e+18
6.68931e+18
5.85942e+18
4.93624e+18
3.9948e+18
3.20044e+18
2.78401e+18
2.75596e+18
2.72736e+18
2.50151e+18
3.03907e+18
4.19829e+18
5.02474e+18
5.48194e+18
5.79571e+18
5.96149e+18
5.81412e+18
4.94058e+18
2.52058e+18
5.44676e+18
1.03245e+19
1.31436e+19
1.50139e+19
1.64409e+19
1.75954e+19
1.85349e+19
1.92779e+19
1.98298e+19
2.01916e+19
2.03634e+19
2.03461e+19
2.01412e+19
1.97517e+19
1.91815e+19
1.84364e+19
1.75238e+19
1.64538e+19
1.52395e+19
1.38961e+19
1.2437e+19
1.08639e+19
9.15855e+18
7.30539e+18
5.5168e+18
4.02818e+18
3.14039e+18
3.01879e+18
3.75866e+18
4.75458e+18
4.99869e+18
3.0268e+18
9.1147e+18
9.44886e+18
1.14863e+19
1.30705e+19
1.42845e+19
1.52424e+19
1.59995e+19
1.65795e+19
1.69925e+19
1.72432e+19
1.73347e+19
1.72698e+19
1.70519e+19
1.66851e+19
1.61751e+19
1.55294e+19
1.47585e+19
1.38765e+19
1.29018e+19
1.18543e+19
1.0749e+19
9.58554e+18
8.34063e+18
6.98722e+18
5.66801e+18
3.92343e+18
2.87657e+18
3.15627e+18
3.30209e+18
3.22475e+18
2.5818e+18
4.28738e+18
1.16967e+19
8.43579e+18
8.78645e+18
9.56599e+18
1.02323e+19
1.07477e+19
1.11338e+19
1.14091e+19
1.15855e+19
1.16709e+19
1.16709e+19
1.15905e+19
1.14347e+19
1.12092e+19
1.09205e+19
1.0577e+19
1.01887e+19
9.76646e+18
9.3204e+18
8.85531e+18
8.36713e+18
7.84246e+18
7.25996e+18
6.58481e+18
5.73546e+18
4.37368e+18
2.64261e+18
3.41279e+18
4.1132e+18
3.58402e+18
1.6918e+18
4.91497e+18
1.312e+19
8.06895e+18
6.57029e+18
6.34222e+18
6.49959e+18
6.77035e+18
7.08108e+18
7.41017e+18
7.74744e+18
8.08469e+18
8.41396e+18
8.72763e+18
9.01861e+18
9.28047e+18
9.50743e+18
9.69408e+18
9.83482e+18
9.92301e+18
9.94996e+18
9.90417e+18
9.7707e+18
9.5285e+18
9.14139e+18
8.54089e+18
7.61094e+18
6.17579e+18
4.25365e+18
3.84527e+18
5.1899e+18
4.91449e+18
2.82191e+18
4.61166e+18
1.34096e+19
8.62642e+18
6.84789e+18
6.65251e+18
7.23629e+18
8.15157e+18
9.18655e+18
1.0241e+19
1.12618e+19
1.22173e+19
1.30864e+19
1.38542e+19
1.45095e+19
1.50439e+19
1.54505e+19
1.57237e+19
1.58589e+19
1.58517e+19
1.56985e+19
1.53948e+19
1.49323e+19
1.42926e+19
1.34367e+19
1.22982e+19
1.07988e+19
8.89862e+18
6.75629e+18
5.39619e+18
6.30524e+18
6.66961e+18
4.44767e+18
3.54899e+18
1.27285e+19
9.36503e+18
8.59438e+18
9.30594e+18
1.07103e+19
1.23665e+19
1.40652e+19
1.57041e+19
1.72276e+19
1.86023e+19
1.98064e+19
2.08247e+19
2.16463e+19
2.22631e+19
2.26694e+19
2.2861e+19
2.28354e+19
2.2592e+19
2.21311e+19
2.14528e+19
2.05531e+19
1.94169e+19
1.80108e+19
1.62842e+19
1.41929e+19
1.17589e+19
9.18895e+18
7.16835e+18
7.06241e+18
8.04966e+18
6.40514e+18
2.24823e+18
1.13305e+19
9.62302e+18
9.86856e+18
1.13337e+19
1.33584e+19
1.55525e+19
1.77226e+19
1.97702e+19
2.16405e+19
2.33007e+19
2.47293e+19
2.5912e+19
2.68386e+19
2.75022e+19
2.78979e+19
2.80231e+19
2.78771e+19
2.74613e+19
2.67785e+19
2.5831e+19
2.46175e+19
2.31274e+19
2.13368e+19
1.92128e+19
1.67361e+19
1.39518e+19
1.10607e+19
8.58946e+18
7.52073e+18
8.21696e+18
7.97808e+18
3.23212e+18
9.40329e+18
9.32352e+18
1.00921e+19
1.19096e+19
1.42611e+19
1.67421e+19
1.91494e+19
2.13851e+19
2.33987e+19
2.51623e+19
2.66592e+19
2.7879e+19
2.88147e+19
2.94619e+19
2.9818e+19
2.98823e+19
2.9656e+19
2.91418e+19
2.83437e+19
2.72655e+19
2.59078e+19
2.42645e+19
2.23217e+19
2.00622e+19
1.74848e+19
1.46444e+19
1.17217e+19
9.14499e+18
7.68824e+18
7.83062e+18
8.41554e+18
6.38669e+18
6.90818e+18
8.92945e+18
9.49343e+18
1.11385e+19
1.34903e+19
1.59874e+19
1.83684e+19
2.05311e+19
2.2436e+19
2.40677e+19
2.54208e+19
2.64937e+19
2.72865e+19
2.77999e+19
2.80356e+19
2.79959e+19
2.76842e+19
2.71048e+19
2.62628e+19
2.51628e+19
2.38074e+19
2.21948e+19
2.03192e+19
1.81763e+19
1.5779e+19
1.31894e+19
1.05774e+19
8.32301e+18
7.09847e+18
7.37835e+18
8.53591e+18
9.53037e+18
4.09189e+18
8.22695e+18
8.61342e+18
9.44091e+18
1.14915e+19
1.38006e+19
1.59332e+19
1.77773e+19
1.93182e+19
2.05671e+19
2.154e+19
2.22515e+19
2.27134e+19
2.29353e+19
2.29253e+19
2.26905e+19
2.22378e+19
2.15739e+19
2.07056e+19
1.9639e+19
1.83788e+19
1.69273e+19
1.52865e+19
1.34631e+19
1.14844e+19
9.42835e+18
7.48483e+18
6.06119e+18
5.75974e+18
6.7658e+18
8.69849e+18
1.16946e+19
1.77097e+18
6.50726e+18
7.38542e+18
7.23791e+18
8.7467e+18
1.08432e+19
1.26494e+19
1.40229e+19
1.50064e+19
1.5664e+19
1.605e+19
1.62052e+19
1.61595e+19
1.59351e+19
1.55493e+19
1.50161e+19
1.43479e+19
1.3556e+19
1.26514e+19
1.16447e+19
1.05472e+19
9.37179e+18
8.13802e+18
6.88419e+18
5.69417e+18
4.74507e+18
4.32802e+18
4.65297e+18
5.59378e+18
6.96726e+18
9.01835e+18
1.29021e+19
1.23238e+18
4.66288e+18
5.8415e+18
4.87789e+18
5.6164e+18
7.75134e+18
9.37304e+18
1.02866e+19
1.06493e+19
1.0625e+19
1.03347e+19
9.86207e+18
9.26597e+18
8.59006e+18
7.87051e+18
7.14167e+18
6.44091e+18
5.81267e+18
5.31048e+18
4.9927e+18
4.90736e+18
5.07073e+18
5.45889e+18
6.02089e+18
6.69636e+18
7.42102e+18
8.12173e+18
8.71282e+18
9.11555e+18
9.36179e+18
9.97916e+18
1.29959e+19
1.82554e+18
4.34276e+18
5.21507e+18
3.76187e+18
2.80242e+18
5.33538e+18
7.0474e+18
7.62772e+18
7.47341e+18
6.92833e+18
6.26252e+18
5.69986e+18
5.42486e+18
5.5426e+18
6.03741e+18
6.80786e+18
7.74085e+18
8.74934e+18
9.77439e+18
1.07769e+19