/*--------------------------------*- C++ -*----------------------------------*\
| =========                 |                                                 |
| \\      /  F ield         | OpenFOAM: The Open Source CFD Toolbox           |
|  \\    /   O peration     | Version:  v2012                                 |
|   \\  /    A nd           | Website:  www.openfoam.com                      |
|    \\/     M anipulation  |                                                 |
\*---------------------------------------------------------------------------*/
FoamFile
{
    version     2.0;
    format      ascii;
    class       volScalarField;
    location    "1";
    object      sigmaHyd;
}
// * * * * * * * * * * * * * * * * * * * * * * * * * * * * * * * * * * * * * //

dimensions      [1 -1 -2 0 0 0 0];


internalField   nonuniform List<scalar> 
32768
(
2.04755e+18
3.66823e+18
4.49339e+18
5.10544e+18
5.61952e+18
6.0631e+18
6.44216e+18
6.75657e+18
7.00459e+18
7.18439e+18
7.29463e+18
7.33457e+18
7.30411e+18
7.20375e+18
7.03442e+18
6.79725e+18
6.49315e+18
6.1222e+18
5.68291e+18
5.17158e+18
4.58248e+18
3.91035e+18
3.15701e+18
2.34367e+18
1.52846e+18
8.33164e+17
5.83596e+17
5.42212e+17
8.20111e+17
1.1047e+18
1.124e+18
3.58667e+17
1.33211e+18
9.76474e+17
1.15543e+18
1.40405e+18
1.65685e+18
1.90012e+18
2.12837e+18
2.3379e+18
2.52585e+18
2.68996e+18
2.82855e+18
2.94045e+18
3.02484e+18
3.08116e+18
3.10883e+18
3.10681e+18
3.07296e+18
3.00305e+18
2.88963e+18
2.72132e+18
2.48386e+18
2.16515e+18
1.76632e+18
1.31735e+18
8.8515e+17
5.45512e+17
2.27912e+17
-1.19681e+17
-4.24084e+17
-6.0103e+17
-8.69294e+17
-9.77879e+17
8.08029e+17
-1.92198e+17
-5.63535e+17
-6.90186e+17
-7.26539e+17
-7.23878e+17
-7.00604e+17
-6.64319e+17
-6.18638e+17
-5.65465e+17
-5.05851e+17
-4.40393e+17
-3.69475e+17
-2.93509e+17
-2.13258e+17
-1.30338e+17
-4.79645e+16
2.80682e+16
8.84902e+16
1.2051e+17
1.10051e+17
4.79195e+16
-5.9991e+16
-1.83407e+17
-2.73512e+17
-2.9575e+17
-2.99511e+17
-4.65578e+17
-7.88414e+17
-1.13502e+18
-1.43201e+18
-1.42844e+18
6.15836e+17
-4.72466e+17
-1.112e+18
-1.48126e+18
-1.72735e+18
-1.91271e+18
-2.06136e+18
-2.1824e+18
-2.27909e+18
-2.35231e+18
-2.40198e+18
-2.42757e+18
-2.42852e+18
-2.40447e+18
-2.35562e+18
-2.28322e+18
-2.19025e+18
-2.08214e+18
-1.96727e+18
-1.85631e+18
-1.75959e+18
-1.6817e+18
-1.61468e+18
-1.53439e+18
-1.40862e+18
-1.22301e+18
-1.01746e+18
-9.03417e+17
-1.00897e+18
-1.24159e+18
-1.41624e+18
-1.39592e+18
5.9342e+17
-2.98104e+17
-9.97895e+17
-1.47501e+18
-1.83453e+18
-2.13333e+18
-2.39485e+18
-2.62735e+18
-2.83278e+18
-3.01063e+18
-3.15939e+18
-3.27733e+18
-3.36275e+18
-3.41433e+18
-3.43142e+18
-3.41444e+18
-3.36542e+18
-3.28843e+18
-3.18967e+18
-3.07659e+18
-2.95551e+18
-2.82775e+18
-2.68572e+18
-2.51197e+18
-2.28593e+18
-2.0006e+18
-1.68675e+18
-1.4228e+18
-1.30689e+18
-1.35748e+18
-1.38521e+18
-1.16538e+18
5.84917e+17
1.35253e+16
-5.88375e+17
-1.04894e+18
-1.42318e+18
-1.75266e+18
-2.05552e+18
-2.3373e+18
-2.59801e+18
-2.83552e+18
-3.04702e+18
-3.22963e+18
-3.38073e+18
-3.49814e+18
-3.58038e+18
-3.62698e+18
-3.63879e+18
-3.61823e+18
-3.56916e+18
-3.49597e+18
-3.4018e+18
-3.28605e+18
-3.1422e+18
-2.95792e+18
-2.71985e+18
-2.42416e+18
-2.09134e+18
-1.77579e+18
-1.55094e+18
-1.45497e+18
-1.36033e+18
-9.83119e+17
4.43088e+17
1.91611e+17
-1.75542e+17
-5.01879e+17
-7.95129e+17
-1.07271e+18
-1.34248e+18
-1.60517e+18
-1.85817e+18
-2.09774e+18
-2.31999e+18
-2.52127e+18
-2.69838e+18
-2.84865e+18
-2.97007e+18
-3.0615e+18
-3.12283e+18
-3.15504e+18
-3.16e+18
-3.13975e+18
-3.09522e+18
-3.02471e+18
-2.9227e+18
-2.78022e+18
-2.58809e+18
-2.34344e+18
-2.05865e+18
-1.76752e+18
-1.51868e+18
-1.34027e+18
-1.15557e+18
-5.52575e+17
-4.42813e+16
-6.16608e+16
1.53242e+16
-6.77598e+16
-1.97534e+17
-3.52778e+17
-5.24375e+17
-7.05632e+17
-8.90545e+17
-1.07379e+18
-1.25079e+18
-1.41766e+18
-1.57115e+18
-1.70862e+18
-1.82804e+18
-1.92805e+18
-2.00802e+18
-2.06803e+18
-2.10863e+18
-2.13031e+18
-2.13266e+18
-2.11343e+18
-2.06786e+18
-1.98911e+18
-1.87026e+18
-1.70835e+18
-1.50959e+18
-1.29285e+18
-1.08567e+18
-9.03359e+17
-6.99972e+17
-3.07495e+17
-2.11488e+17
-3.09903e+17
-2.0047e+17
1.01759e+17
1.96032e+17
2.08615e+17
1.77263e+17
1.20231e+17
4.7995e+16
-3.26868e+16
-1.17103e+17
-2.018e+17
-2.84172e+17
-3.62244e+17
-4.34558e+17
-5.00133e+17
-5.58427e+17
-6.09266e+17
-6.52634e+17
-6.88292e+17
-7.1523e+17
-7.31091e+17
-7.31828e+17
-7.11989e+17
-6.65987e+17
-5.90508e+17
-4.87566e+17
-3.66648e+17
-2.43128e+17
-1.30674e+17
-3.6125e+16
-4.53978e+16
-1.25194e+16
-2.2957e+17
-3.1255e+17
-7.31803e+16
3.16559e+17
5.07512e+17
6.2296e+17
7.00863e+17
7.57939e+17
8.02032e+17
8.37077e+17
8.65172e+17
8.87452e+17
9.04496e+17
9.16528e+17
9.23537e+17
9.25353e+17
9.21744e+17
9.12581e+17
8.98105e+17
8.79271e+17
8.58096e+17
8.37843e+17
8.22818e+17
8.17573e+17
8.25426e+17
8.46484e+17
8.757e+17
9.01136e+17
8.98507e+17
7.97028e+17
3.03363e+17
4.34294e+17
2.76422e+17
-2.81948e+16
-6.63191e+16
2.00804e+17
5.62836e+17
7.8636e+17
9.67892e+17
1.13405e+18
1.29267e+18
1.44518e+18
1.59084e+18
1.7282e+18
1.85558e+18
1.97131e+18
2.07379e+18
2.1616e+18
2.23353e+18
2.28875e+18
2.3269e+18
2.34836e+18
2.35443e+18
2.34739e+18
2.33036e+18
2.30675e+18
2.27921e+18
2.24797e+18
2.20822e+18
2.14461e+18
2.01434e+18
1.68598e+18
7.2405e+17
1.01135e+18
1.00992e+18
6.50671e+17
3.36247e+17
3.09601e+17
5.20176e+17
7.67484e+17
9.72886e+17
1.1868e+18
1.41452e+18
1.65109e+18
1.89027e+18
2.12628e+18
2.3541e+18
2.56941e+18
2.76852e+18
2.94833e+18
3.10627e+18
3.24039e+18
3.34938e+18
3.43271e+18
3.49066e+18
3.52436e+18
3.53559e+18
3.52634e+18
3.49784e+18
3.44874e+18
3.37132e+18
3.24247e+18
2.9984e+18
2.46057e+18
1.13589e+18
1.59517e+18
1.77747e+18
1.45372e+18
1.04277e+18
7.50519e+17
7.0646e+17
7.91603e+17
8.866e+17
1.05116e+18
1.27471e+18
1.53868e+18
1.82612e+18
2.12398e+18
2.42223e+18
2.713e+18
2.98997e+18
3.24804e+18
3.48307e+18
3.69182e+18
3.87188e+18
4.02164e+18
4.14029e+18
4.22771e+18
4.28427e+18
4.31029e+18
4.30498e+18
4.26418e+18
4.1754e+18
4.00597e+18
3.67328e+18
2.97128e+18
1.43113e+18
2.08862e+18
2.40964e+18
2.1704e+18
1.75987e+18
1.36681e+18
1.11788e+18
1.05082e+18
1.02938e+18
9.93695e+17
1.11453e+18
1.32936e+18
1.60201e+18
1.90687e+18
2.22633e+18
2.54771e+18
2.86157e+18
3.16063e+18
3.43921e+18
3.69289e+18
3.91827e+18
4.11286e+18
4.27489e+18
4.4032e+18
4.49685e+18
4.55449e+18
4.57312e+18
4.5453e+18
4.45324e+18
4.25565e+18
3.85844e+18
3.05772e+18
1.50704e+18
2.35761e+18
2.70066e+18
2.55098e+18
2.19609e+18
1.79591e+18
1.46757e+18
1.28442e+18
1.20447e+18
1.11095e+18
9.54969e+17
1.00378e+18
1.1643e+18
1.39002e+18
1.65136e+18
1.92923e+18
2.21064e+18
2.48628e+18
2.74928e+18
2.99449e+18
3.218e+18
3.41686e+18
3.58878e+18
3.73189e+18
3.84422e+18
3.92299e+18
3.963e+18
3.95363e+18
3.8725e+18
3.67286e+18
3.26069e+18
2.47354e+18
1.2334e+18
2.24259e+18
2.41851e+18
2.35338e+18
2.1103e+18
1.79426e+18
1.50195e+18
1.3124e+18
1.25187e+18
1.20313e+18
1.06179e+18
8.16311e+17
7.88899e+17
8.71103e+17
1.01412e+18
1.1894e+18
1.3797e+18
1.57391e+18
1.76452e+18
1.94626e+18
2.11537e+18
2.26907e+18
2.40517e+18
2.52162e+18
2.61598e+18
2.68448e+18
2.72031e+18
2.71049e+18
2.62996e+18
2.43155e+18
2.03468e+18
1.35206e+18
6.43607e+17
1.76503e+18
1.61638e+18
1.58662e+18
1.46094e+18
1.26886e+18
1.07679e+18
9.53572e+17
9.45546e+17
1.03359e+18
1.04033e+18
8.8326e+17
5.89512e+17
4.89961e+17
4.78783e+17
5.13114e+17
5.70324e+17
6.37973e+17
7.08819e+17
7.78481e+17
8.44237e+17
9.04318e+17
9.57361e+17
1.00189e+18
1.03565e+18
1.05461e+18
1.05124e+18
1.01164e+18
9.10839e+17
7.07313e+17
3.47278e+17
-1.56415e+17
-1.95322e+17
9.71929e+17
3.86763e+17
3.24414e+17
2.91584e+17
2.28522e+17
1.65131e+17
1.5195e+17
2.35123e+17
4.27879e+17
6.70034e+17
7.45794e+17
6.04551e+17
3.10536e+17
1.5426e+17
4.95158e+16
-3.34874e+16
-1.07597e+17
-1.78218e+17
-2.47385e+17
-3.15537e+17
-3.82411e+17
-4.47655e+17
-5.11392e+17
-5.7491e+17
-6.4165e+17
-7.1873e+17
-8.19209e+17
-9.64743e+17
-1.18513e+18
-1.49692e+18
-1.77803e+18
-1.13629e+18
-1.34158e+16
-1.05614e+18
-1.21907e+18
-1.20683e+18
-1.16787e+18
-1.11153e+18
-1.00841e+18
-8.21336e+17
-5.27999e+17
-1.4749e+17
2.26601e+17
3.69925e+17
2.71539e+17
2.41037e+16
-1.65563e+17
-3.50275e+17
-5.41719e+17
-7.4062e+17
-9.44231e+17
-1.14888e+18
-1.35094e+18
-1.54732e+18
-1.73595e+18
-1.91637e+18
-2.09055e+18
-2.26404e+18
-2.44721e+18
-2.65532e+18
-2.90156e+18
-3.16011e+18
-3.21008e+18
-1.99971e+18
-1.03152e+18
-2.44998e+18
-2.75901e+18
-2.75698e+18
-2.66276e+18
-2.52264e+18
-2.32826e+18
-2.05453e+18
-1.67956e+18
-1.20568e+18
-6.80971e+17
-2.20264e+17
-2.37342e+16
-6.04148e+16
-2.22573e+17
-4.17924e+17
-6.57303e+17
-9.32068e+17
-1.23035e+18
-1.54141e+18
-1.85632e+18
-2.16799e+18
-2.47127e+18
-2.76321e+18
-3.04354e+18
-3.3152e+18
-3.5843e+18
-3.85736e+18
-4.12826e+18
-4.33025e+18
-4.17226e+18
-2.60694e+18
-1.91256e+18
-3.52724e+18
-3.9897e+18
-4.0446e+18
-3.94734e+18
-3.77303e+18
-3.53194e+18
-3.21102e+18
-2.79334e+18
-2.27409e+18
-1.67908e+18
-1.07885e+18
-5.93448e+17
-3.68836e+17
-3.3642e+17
-3.89212e+17
-5.62942e+17
-8.24292e+17
-1.14515e+18
-1.50249e+18
-1.87903e+18
-2.26194e+18
-2.64192e+18
-3.0129e+18
-3.37179e+18
-3.71821e+18
-4.053e+18
-4.37277e+18
-4.65228e+18
-4.79196e+18
-4.47265e+18
-2.8221e+18
-2.51174e+18
-4.0766e+18
-4.65374e+18
-4.78935e+18
-4.73171e+18
-4.57151e+18
-4.33289e+18
-4.0131e+18
-3.60122e+18
-3.09119e+18
-2.49563e+18
-1.86004e+18
-1.26771e+18
-8.26557e+17
-6.06054e+17
-5.09998e+17
-4.47857e+17
-5.77312e+17
-8.25365e+17
-1.14821e+18
-1.51487e+18
-1.90402e+18
-2.30098e+18
-2.69588e+18
-3.08254e+18
-3.45704e+18
-3.81476e+18
-4.14277e+18
-4.39982e+18
-4.46713e+18
-4.04517e+18
-2.58126e+18
-2.73522e+18
-3.98356e+18
-4.59416e+18
-4.80316e+18
-4.80678e+18
-4.69485e+18
-4.49893e+18
-4.2237e+18
-3.86354e+18
-3.41356e+18
-2.87989e+18
-2.29074e+18
-1.705e+18
-1.20689e+18
-8.7608e+17
-6.94758e+17
-5.53145e+17
-3.90181e+17
-4.60682e+17
-6.62371e+17
-9.41923e+17
-1.26491e+18
-1.6093e+18
-1.96093e+18
-2.31057e+18
-2.65118e+18
-2.97349e+18
-3.25693e+18
-3.44999e+18
-3.43139e+18
-2.96567e+18
-1.90879e+18
-2.55729e+18
-3.25514e+18
-3.78951e+18
-4.03293e+18
-4.09246e+18
-4.04035e+18
-3.90829e+18
-3.70486e+18
-3.42836e+18
-3.07553e+18
-2.64953e+18
-2.16819e+18
-1.67146e+18
-1.22328e+18
-8.9643e+17
-7.30086e+17
-6.21162e+17
-4.62025e+17
-2.29244e+17
-2.3493e+17
-3.62359e+17
-5.56527e+17
-7.84967e+17
-1.02862e+18
-1.27585e+18
-1.51772e+18
-1.74216e+18
-1.92441e+18
-2.0101e+18
-1.89239e+18
-1.4328e+18
-9.12642e+17
-2.02129e+18
-2.01451e+18
-2.3559e+18
-2.57062e+18
-2.65496e+18
-2.64968e+18
-2.57947e+18
-2.45327e+18
-2.27145e+18
-2.03221e+18
-1.73737e+18
-1.39855e+18
-1.04305e+18
-7.16963e+17
-4.79855e+17
-3.81826e+17
-4.14716e+17
-4.04477e+17
-2.60337e+17
1.51911e+15
6.02868e+16
2.96678e+16
-4.25445e+16
-1.31735e+17
-2.25268e+17
-3.14686e+17
-3.88268e+17
-4.21572e+17
-3.65407e+17
-1.41625e+17
2.75718e+17
2.37921e+17
-1.22703e+18
-4.72293e+17
-5.20865e+17
-6.33318e+17
-6.93558e+17
-7.02265e+17
-6.7133e+17
-6.0671e+17
-5.09122e+17
-3.77596e+17
-2.1346e+17
-2.46845e+16
1.6972e+17
3.36758e+17
4.31096e+17
4.06995e+17
2.45929e+17
4.20079e+15
-9.71489e+16
4.40221e+15
2.57138e+17
3.80632e+17
4.66939e+17
5.47033e+17
6.31767e+17
7.25017e+17
8.33558e+17
9.76046e+17
1.18903e+18
1.51275e+18
1.86477e+18
1.34838e+18
-3.07232e+17
1.12048e+18
1.42672e+18
1.48365e+18
1.50112e+18
1.52046e+18
1.54643e+18
1.57884e+18
1.61822e+18
1.66534e+18
1.719e+18
1.77322e+18
1.8142e+18
1.81799e+18
1.75102e+18
1.57642e+18
1.27119e+18
8.54283e+17
4.25453e+17
2.2289e+17
2.73841e+17
4.98949e+17
6.97943e+17
9.22145e+17
1.17571e+18
1.45094e+18
1.74291e+18
2.05843e+18
2.41551e+18
2.81365e+18
3.0845e+18
2.23925e+18
5.98133e+17
2.52157e+18
3.19279e+18
3.46274e+18
3.60015e+18
3.68404e+18
3.73763e+18
3.76855e+18
3.78001e+18
3.77319e+18
3.74683e+18
3.69584e+18
3.60937e+18
3.4694e+18
3.25101e+18
2.92651e+18
2.47603e+18
1.90738e+18
1.28005e+18
7.28057e+17
4.74408e+17
5.06562e+17
7.23715e+17
1.02598e+18
1.4051e+18
1.83027e+18
2.27477e+18
2.72711e+18
3.18345e+18
3.60636e+18
3.7779e+18
2.77991e+18
1.35706e+18
3.52752e+18
4.51534e+18
5.00223e+18
5.27251e+18
5.43458e+18
5.53036e+18
5.5767e+18
5.58048e+18
5.54383e+18
5.46544e+18
5.34034e+18
5.15908e+18
4.90712e+18
4.56549e+18
4.1141e+18
3.53943e+18
2.84824e+18
2.08669e+18
1.35488e+18
8.06935e+17
6.15957e+17
7.20542e+17
9.93944e+17
1.43002e+18
1.94802e+18
2.48473e+18
3.00423e+18
3.48189e+18
3.85291e+18
3.89401e+18
2.90244e+18
1.82806e+18
3.94868e+18
5.13876e+18
5.78647e+18
6.15157e+18
6.36329e+18
6.48087e+18
6.53047e+18
6.52299e+18
6.46178e+18
6.34555e+18
6.16911e+18
5.92345e+18
5.59585e+18
5.17112e+18
4.63494e+18
3.98049e+18
3.21917e+18
2.39495e+18
1.59797e+18
9.62925e+17
6.3954e+17
7.06247e+17
1.02603e+18
1.42264e+18
1.96029e+18
2.501e+18
2.98294e+18
3.37069e+18
3.58596e+18
3.44464e+18
2.57928e+18
1.77299e+18
3.47456e+18
4.65235e+18
5.30411e+18
5.64605e+18
5.81734e+18
5.88799e+18
5.89027e+18
5.8379e+18
5.73518e+18
5.58096e+18
5.36999e+18
5.09353e+18
4.74005e+18
4.29692e+18
3.75406e+18
3.11025e+18
2.38253e+18
1.61785e+18
9.03568e+17
3.68507e+17
1.57444e+17
3.66531e+17
9.13558e+17
1.52712e+18
1.96949e+18
2.38462e+18
2.67515e+18
2.82649e+18
2.76624e+18
2.3803e+18
1.75094e+18
7.12663e+17
1.43814e+18
2.13761e+18
2.47121e+18
2.57544e+18
2.56054e+18
2.48452e+18
2.37463e+18
2.24272e+18
2.09274e+18
1.92404e+18
1.73259e+18
1.51158e+18
1.25225e+18
9.45579e+17
5.85446e+17
1.73818e+17
-2.72096e+17
-7.11579e+17
-1.07379e+18
-1.25814e+18
-1.15071e+18
-6.69571e+17
1.58916e+17
1.05705e+18
1.70258e+18
1.76287e+18
1.65413e+18
1.42335e+18
1.02935e+18
4.56128e+17
3.29155e+17
4.67234e+18
8.59678e+18
1.05143e+19
1.18971e+19
1.30369e+19
1.40061e+19
1.48225e+19
1.54879e+19
1.59999e+19
1.63553e+19
1.65518e+19
1.65882e+19
1.64647e+19
1.6183e+19
1.57456e+19
1.51559e+19
1.44173e+19
1.35326e+19
1.25024e+19
1.13243e+19
9.99166e+18
8.49561e+18
6.8318e+18
5.01922e+18
3.14529e+18
1.48303e+18
1.06909e+18
1.52414e+18
2.42227e+18
3.30117e+18
3.57785e+18
1.60326e+18
3.64434e+18
3.94518e+18
4.6723e+18
5.32822e+18
5.90687e+18
6.41785e+18
6.86292e+18
7.24012e+18
7.54656e+18
7.77964e+18
7.93743e+18
8.01878e+18
8.0233e+18
7.95113e+18
7.80272e+18
7.57839e+18
7.27755e+18
6.8978e+18
6.43361e+18
5.87543e+18
5.21012e+18
4.42542e+18
3.52187e+18
2.5358e+18
1.56681e+18
7.56654e+17
3.39875e+17
1.77195e+17
1.94834e+17
2.28357e+17
-2.58849e+16
-7.37506e+17
2.55123e+18
1.52245e+18
1.40634e+18
1.48297e+18
1.60372e+18
1.72994e+18
1.84814e+18
1.95224e+18
2.03901e+18
2.10668e+18
2.15437e+18
2.18175e+18
2.18884e+18
2.17573e+18
2.14227e+18
2.08755e+18
2.00922e+18
1.90252e+18
1.75948e+18
1.56888e+18
1.31846e+18
1.00131e+18
6.2741e+17
2.36084e+17
-1.02852e+17
-3.06758e+17
-4.4301e+17
-5.60009e+17
-7.8758e+17
-1.06566e+18
-1.48408e+18
-1.99014e+18
1.7936e+18
8.70627e+16
-5.94965e+17
-9.75288e+17
-1.24594e+18
-1.46678e+18
-1.65851e+18
-1.82842e+18
-1.97863e+18
-2.10916e+18
-2.21908e+18
-2.30719e+18
-2.37229e+18
-2.4135e+18
-2.43066e+18
-2.42471e+18
-2.39837e+18
-2.35676e+18
-2.30765e+18
-2.2607e+18
-2.22448e+18
-2.20102e+18
-2.17873e+18
-2.12856e+18
-2.01031e+18
-1.79132e+18
-1.50023e+18
-1.3263e+18
-1.3494e+18
-1.63817e+18
-2.02267e+18
-2.46248e+18
1.32413e+18
-6.31063e+17
-1.66213e+18
-2.37383e+18
-2.95213e+18
-3.46084e+18
-3.92153e+18
-4.34001e+18
-4.71607e+18
-5.04718e+18
-5.33013e+18
-5.56171e+18
-5.73911e+18
-5.8602e+18
-5.92386e+18
-5.93036e+18
-5.88178e+18
-5.78232e+18
-5.63822e+18
-5.45653e+18
-5.24264e+18
-4.99642e+18
-4.70871e+18
-4.36103e+18
-3.9319e+18
-3.41256e+18
-2.83261e+18
-2.2855e+18
-1.96751e+18
-1.93679e+18
-2.16638e+18
-2.39479e+18
1.03358e+18
-8.23959e+17
-1.98814e+18
-2.88039e+18
-3.65087e+18
-4.35418e+18
-5.00737e+18
-5.61257e+18
-6.16627e+18
-6.66309e+18
-7.09738e+18
-7.46392e+18
-7.75822e+18
-7.97678e+18
-8.11732e+18
-8.17903e+18
-8.16282e+18
-8.07144e+18
-7.90907e+18
-7.68032e+18
-7.38828e+18
-7.03219e+18
-6.60583e+18
-6.09838e+18
-5.49951e+18
-4.8099e+18
-4.05751e+18
-3.30735e+18
-2.66152e+18
-2.25747e+18
-2.08532e+18
-2.00757e+18
7.56155e+17
-7.51635e+17
-1.81869e+18
-2.71225e+18
-3.52943e+18
-4.30311e+18
-5.03987e+18
-5.73583e+18
-6.38346e+18
-6.97453e+18
-7.50129e+18
-7.95689e+18
-8.33556e+18
-8.63274e+18
-8.84516e+18
-8.97102e+18
-9.01003e+18
-8.96339e+18
-8.83341e+18
-8.62263e+18
-8.33254e+18
-7.9622e+18
-7.50753e+18
-6.96246e+18
-6.32257e+18
-5.59199e+18
-4.79254e+18
-3.9704e+18
-3.18953e+18
-2.51126e+18
-1.93909e+18
-1.26362e+18
2.40249e+17
-7.55387e+17
-1.4534e+18
-2.15889e+18
-2.86626e+18
-3.57245e+18
-4.26698e+18
-4.93737e+18
-5.57158e+18
-6.15891e+18
-6.69024e+18
-7.15798e+18
-7.5559e+18
-7.87911e+18
-8.124e+18
-8.28824e+18
-8.37077e+18
-8.37168e+18
-8.29186e+18
-8.13235e+18
-7.89352e+18
-7.57428e+18
-7.17181e+18
-6.68256e+18
-6.10475e+18
-5.44275e+18
-4.71212e+18
-3.94233e+18
-3.17194e+18
-2.42516e+18
-1.65738e+18
-5.41053e+17
-3.9698e+17
-7.57729e+17
-1.16736e+18
-1.51898e+18
-1.98303e+18
-2.49876e+18
-3.03358e+18
-3.56452e+18
-4.07492e+18
-4.55251e+18
-4.98808e+18
-5.37459e+18
-5.70664e+18
-5.98012e+18
-6.19204e+18
-6.34043e+18
-6.42425e+18
-6.44322e+18
-6.39754e+18
-6.28746e+18
-6.11272e+18
-5.87216e+18
-5.56363e+18
-5.18475e+18
-4.73461e+18
-4.21645e+18
-3.64051e+18
-3.02494e+18
-2.39153e+18
-1.75131e+18
-1.07095e+18
-2.33448e+17
-4.56048e+17
-6.16567e+17
-8.51454e+17
-1.01124e+18
-1.1572e+18
-1.40782e+18
-1.7037e+18
-2.01111e+18
-2.30964e+18
-2.58714e+18
-2.83623e+18
-3.05226e+18
-3.23228e+18
-3.37438e+18
-3.47747e+18
-3.54105e+18
-3.5651e+18
-3.54992e+18
-3.49593e+18
-3.40335e+18
-3.27195e+18
-3.10075e+18
-2.8881e+18
-2.63225e+18
-2.33249e+18
-1.9909e+18
-1.61412e+18
-1.21422e+18
-8.07259e+17
-4.09861e+17
-4.27729e+16
1.88257e+17
5.79964e+16
-1.30528e+17
-3.40527e+17
-4.99078e+17
-5.17474e+17
-5.19067e+17
-5.65943e+17
-6.22958e+17
-6.69096e+17
-6.95571e+17
-6.99871e+17
-6.82319e+17
-6.44444e+17
-5.88259e+17
-5.15932e+17
-4.29629e+17
-3.31416e+17
-2.23161e+17
-1.0641e+17
1.77753e+16
1.48982e+17
2.87527e+17
4.34344e+17
5.90539e+17
7.56515e+17
9.30681e+17
1.10785e+18
1.27747e+18
1.42096e+18
1.50299e+18
1.43293e+18
8.80635e+17
1.02601e+18
8.89586e+17
5.34113e+17
2.39987e+17
9.16278e+16
1.49789e+17
2.47653e+17
3.86351e+17
5.6495e+17
7.81993e+17
1.0298e+18
1.29928e+18
1.58173e+18
1.86929e+18
2.15509e+18
2.43318e+18
2.69846e+18
2.94665e+18
3.17431e+18
3.37884e+18
3.55855e+18
3.71258e+18
3.84079e+18
3.94328e+18
4.01963e+18
4.06768e+18
4.0816e+18
4.04867e+18
3.94218e+18
3.70163e+18
3.16573e+18
1.7911e+18
2.27125e+18
2.27858e+18
1.8526e+18
1.30902e+18
9.1823e+17
7.509e+17
8.1786e+17
9.74668e+17
1.26623e+18
1.64726e+18
2.09052e+18
2.57209e+18
3.07232e+18
3.57525e+18
4.06787e+18
4.53951e+18
4.98138e+18
5.38627e+18
5.74839e+18
6.0632e+18
6.32732e+18
6.53839e+18
6.69479e+18
6.79521e+18
6.83779e+18
6.81876e+18
6.72992e+18
6.55377e+18
6.25258e+18
5.73969e+18
4.79176e+18
2.70253e+18
3.56649e+18
3.74703e+18
3.31035e+18
2.65203e+18
1.98358e+18
1.53032e+18
1.34948e+18
1.42147e+18
1.63086e+18
2.0527e+18
2.59838e+18
3.21909e+18
3.87829e+18
4.54868e+18
5.20941e+18
5.84423e+18
6.44027e+18
6.9872e+18
7.47679e+18
7.9025e+18
8.25923e+18
8.54303e+18
8.75076e+18
8.87949e+18
8.9256e+18
8.88306e+18
8.74039e+18
8.47436e+18
8.03627e+18
7.31801e+18
6.05298e+18
3.42772e+18
4.67807e+18
5.02543e+18
4.61839e+18
3.91521e+18
3.12588e+18
2.40835e+18
1.933e+18
1.73088e+18
1.80696e+18
2.0433e+18
2.53685e+18
3.16839e+18
3.87527e+18
4.61416e+18
5.35445e+18
6.07374e+18
6.75515e+18
7.38563e+18
7.95496e+18
8.4551e+18
8.87962e+18
9.22337e+18
9.4819e+18
9.65083e+18
9.72472e+18
9.69518e+18
9.54731e+18
9.25263e+18
8.75431e+18
7.933e+18
6.51237e+18
3.69013e+18
5.30854e+18
5.71292e+18
5.3725e+18
4.71188e+18
3.92377e+18
3.14331e+18
2.49163e+18
2.0767e+18
1.91241e+18
2.00094e+18
2.25068e+18
2.75963e+18
3.39648e+18
4.09485e+18
4.81152e+18
5.51744e+18
6.19221e+18
6.82095e+18
7.39248e+18
7.89822e+18
8.33138e+18
8.68639e+18
8.95824e+18
9.14169e+18
9.23009e+18
9.21326e+18
9.07381e+18
8.78013e+18
8.2727e+18
7.43523e+18
6.02092e+18
3.34689e+18
5.28861e+18
5.58508e+18
5.29818e+18
4.73272e+18
4.0338e+18
3.31109e+18
2.66241e+18
2.17354e+18
1.88178e+18
1.79809e+18
1.88971e+18
2.10887e+18
2.5464e+18
3.08037e+18
3.65154e+18
4.22399e+18
4.77505e+18
5.28977e+18
5.75779e+18
6.17166e+18
6.52572e+18
6.81531e+18
7.03605e+18
7.18291e+18
7.24904e+18
7.22366e+18
7.08867e+18
6.81264e+18
6.34049e+18
5.57607e+18
4.34819e+18
2.26887e+18
4.43932e+18
4.37288e+18
4.10949e+18
3.6844e+18
3.16084e+18
2.61101e+18
2.10965e+18
1.7252e+18
1.50405e+18
1.40682e+18
1.43104e+18
1.5204e+18
1.68037e+18
1.98158e+18
2.33086e+18
2.68576e+18
3.02349e+18
3.33159e+18
3.60303e+18
3.83368e+18
4.02093e+18
4.1627e+18
4.25669e+18
4.2995e+18
4.28549e+18
4.20496e+18
4.04151e+18
3.76801e+18
3.34174e+18
2.70282e+18
1.79124e+18
6.11372e+17
2.859e+18
2.24247e+18
1.93824e+18
1.64679e+18
1.3271e+18
1.00604e+18
7.31099e+17
5.53203e+17
5.10564e+17
6.07134e+17
7.33547e+17
8.72165e+17
9.51011e+17
1.02919e+18
1.14737e+18
1.25602e+18
1.33644e+18
1.3829e+18
1.39531e+18
1.37586e+18
1.32733e+18
1.25219e+18
1.15191e+18
1.02624e+18
8.72289e+17
6.83352e+17
4.47342e+17
1.4558e+17
-2.45195e+17
-7.36436e+17
-1.2567e+18
-1.37389e+18
7.47784e+17
-5.17741e+17
-9.3169e+17
-1.12884e+18
-1.26027e+18
-1.34789e+18
-1.37224e+18
-1.30142e+18
-1.10767e+18
-7.84766e+17
-3.69849e+17
-2.65909e+16
2.12711e+17
2.72546e+17
2.57605e+17
1.73118e+17
2.13342e+16
-1.89349e+17
-4.46342e+17
-7.37037e+17
-1.05025e+18
-1.37675e+18
-1.70959e+18
-2.04442e+18
-2.37986e+18
-2.71798e+18
-3.06423e+18
-3.42545e+18
-3.80061e+18
-4.14711e+18
-4.26253e+18
-3.33221e+18
-1.57485e+18
-3.45145e+18
-4.02435e+18
-4.18469e+18
-4.17876e+18
-4.07382e+18
-3.87681e+18
-3.57369e+18
-3.14803e+18
-2.59637e+18
-1.94362e+18
-1.26204e+18
-7.45955e+17
-4.37877e+17
-4.04714e+17
-5.11449e+17
-7.88454e+17
-1.18145e+18
-1.65571e+18
-2.18183e+18
-2.7362e+18
-3.30026e+18
-3.85987e+18
-4.40481e+18
-4.92841e+18
-5.42691e+18
-5.89766e+18
-6.33382e+18
-6.70863e+18
-6.92836e+18
-6.68317e+18
-4.88972e+18
-3.73846e+18
-6.0419e+18
-6.77879e+18
-6.95684e+18
-6.88156e+18
-6.65431e+18
-6.30375e+18
-5.83101e+18
-5.22996e+18
-4.50087e+18
-3.66404e+18
-2.77122e+18
-1.91932e+18
-1.30469e+18
-9.73469e+17
-9.73223e+17
-1.15849e+18
-1.5899e+18
-2.16875e+18
-2.83869e+18
-3.5576e+18
-4.2943e+18
-5.02568e+18
-5.7348e+18
-6.40921e+18
-7.03904e+18
-7.61331e+18
-8.11175e+18
-8.48439e+18
-8.59753e+18
-8.07633e+18
-5.73293e+18
-5.39116e+18
-7.81261e+18
-8.6632e+18
-8.89066e+18
-8.8096e+18
-8.53799e+18
-8.1187e+18
-7.56398e+18
-6.87577e+18
-6.05819e+18
-5.12821e+18
-4.12669e+18
-3.12451e+18
-2.22918e+18
-1.60958e+18
-1.30809e+18
-1.34493e+18
-1.58546e+18
-2.11044e+18
-2.79094e+18
-3.55702e+18
-4.36002e+18
-5.1659e+18
-5.95048e+18
-6.69593e+18
-7.38704e+18
-8.00581e+18
-8.52108e+18
-8.86598e+18
-8.88474e+18
-8.19149e+18
-5.67633e+18
-6.26616e+18
-8.42498e+18
-9.28438e+18
-9.55637e+18
-9.50972e+18
-9.2581e+18
-8.84921e+18
-8.30143e+18
-7.62188e+18
-6.81735e+18
-5.90292e+18
-4.91024e+18
-3.89475e+18
-2.93611e+18
-2.1365e+18
-1.61139e+18
-1.3921e+18
-1.46729e+18
-1.73235e+18
-2.27471e+18
-2.95407e+18
-3.69725e+18
-4.45659e+18
-5.20067e+18
-5.90753e+18
-6.55883e+18
-7.1325e+18
-7.59113e+18
-7.86029e+18
-7.78367e+18
-7.01983e+18
-4.70298e+18
-6.23039e+18
-7.74624e+18
-8.47072e+18
-8.74217e+18
-8.73503e+18
-8.53819e+18
-8.19433e+18
-7.72268e+18
-7.13243e+18
-6.43141e+18
-5.63296e+18
-4.76208e+18
-3.8608e+18
-2.9911e+18
-2.22947e+18
-1.65696e+18
-1.317e+18
-1.22347e+18
-1.33333e+18
-1.58621e+18
-2.06178e+18
-2.62946e+18
-3.22461e+18
-3.80897e+18
-4.35911e+18
-4.8573e+18
-5.2821e+18
-5.5963e+18
-5.72871e+18
-5.544e+18
-4.79199e+18
-2.96911e+18
-5.30565e+18
-5.87484e+18
-6.30837e+18
-6.50158e+18
-6.50252e+18
-6.35897e+18
-6.09991e+18
-5.74043e+18
-5.28883e+18
-4.75243e+18
-4.14251e+18
-3.47881e+18
-2.79335e+18
-2.13257e+18
-1.5555e+18
-1.12329e+18
-8.82023e+17
-7.9414e+17
-8.51154e+17
-9.82249e+17
-1.17881e+18
-1.5005e+18
-1.84803e+18
-2.17799e+18
-2.47007e+18
-2.71315e+18
-2.89302e+18
-2.98025e+18
-2.91771e+18
-2.60877e+18
-1.92402e+18
-7.70812e+17
-3.65823e+18
-3.11715e+18
-3.12345e+18
-3.14554e+18
-3.09621e+18
-2.97277e+18
-2.78401e+18
-2.53686e+18
-2.23627e+18
-1.88772e+18
-1.50019e+18
-1.08904e+18
-6.78663e+17
-3.03781e+17
-7.95899e+15
1.62749e+17
1.74048e+17
2.534e+16
-1.6622e+17
-3.66922e+17
-4.86313e+17
-5.69034e+17
-6.49227e+17
-6.80134e+17
-6.52865e+17
-5.72573e+17
-4.4133e+17
-2.45675e+17
4.83925e+16
4.87881e+17
1.07436e+18
1.51802e+18
-1.56325e+18
7.50006e+16
5.82031e+17
8.15106e+17
9.80772e+17
1.1336e+18
1.28879e+18
1.45048e+18
1.61885e+18
1.79112e+18
1.96071e+18
2.11571e+18
2.23746e+18
2.29998e+18
2.27151e+18
2.11956e+18
1.82135e+18
1.37983e+18
8.4663e+17
4.07361e+17
1.2024e+17
8.111e+16
1.91997e+17
4.37194e+17
7.89991e+17
1.21266e+18
1.67392e+18
2.1633e+18
2.68586e+18
3.23654e+18
3.7058e+18
3.52024e+18
6.40578e+17
3.18381e+18
4.21711e+18
4.75347e+18
5.08251e+18
5.3062e+18
5.46516e+18
5.57634e+18
5.64608e+18
5.67469e+18
5.65773e+18
5.58584e+18
5.44434e+18
5.21338e+18
4.86981e+18
4.39184e+18
3.76757e+18
3.00833e+18
2.16387e+18
1.34096e+18
7.73249e+17
5.34451e+17
6.9896e+17
1.10645e+18
1.7346e+18
2.46517e+18
3.21852e+18
3.95432e+18
4.64839e+18
5.24937e+18
5.57379e+18
4.91785e+18
2.57207e+18
5.68061e+18
7.16664e+18
7.98752e+18
8.47421e+18
8.77078e+18
8.9431e+18
9.02109e+18
9.01725e+18
8.93484e+18
8.77106e+18
8.51814e+18
8.1638e+18
7.692e+18
7.08529e+18
6.32957e+18
5.42218e+18
4.38357e+18
3.2716e+18
2.19188e+18
1.30424e+18
8.57755e+17
9.11495e+17
1.46081e+18
2.25116e+18
3.20992e+18
4.15541e+18
5.02144e+18
5.76495e+18
6.29959e+18
6.41433e+18
5.46663e+18
3.72251e+18
6.97732e+18
8.74005e+18
9.70923e+18
1.02493e+19
1.05426e+19
1.06765e+19
1.06912e+19
1.06039e+19
1.04201e+19
1.01378e+19
9.7501e+18
9.24564e+18
8.61018e+18
7.82923e+18
6.89334e+18
5.8065e+18
4.59786e+18
3.33549e+18
2.13836e+18
1.17562e+18
6.49023e+17
7.68059e+17
1.48487e+18
2.59366e+18
3.644e+18
4.5969e+18
5.37814e+18
5.96227e+18
6.24413e+18
6.0071e+18
4.89168e+18
2.94915e+18
5.99241e+18
7.62189e+18
8.38978e+18
8.70301e+18
8.77232e+18
8.6975e+18
8.52383e+18
8.27057e+18
7.94392e+18
7.54236e+18
7.05871e+18
6.4811e+18
5.79453e+18
4.98417e+18
4.04134e+18
2.97314e+18
1.81567e+18
6.49187e+17
-3.88872e+17
-1.10085e+18
-1.25209e+18
-6.26214e+17
8.45085e+17
2.8904e+18
4.18394e+18
4.68462e+18
4.91678e+18
4.92174e+18
4.58932e+18
3.72036e+18
2.43797e+18
4.04058e+18
7.83984e+18
9.92014e+18
1.14787e+19
1.2791e+19
1.39312e+19
1.49173e+19
1.57504e+19
1.64266e+19
1.69413e+19
1.72909e+19
1.74729e+19
1.74865e+19
1.7332e+19
1.70111e+19
1.6526e+19
1.58791e+19
1.50712e+19
1.40997e+19
1.29546e+19
1.16137e+19
1.0037e+19
8.16379e+18
5.91522e+18
3.13252e+18
1.15305e+18
5.99137e+17
1.13437e+18
2.20466e+18
3.35513e+18
3.94608e+18
2.24344e+18
4.28731e+18
6.12972e+18
7.44237e+18
8.49363e+18
9.39536e+18
1.01828e+19
1.08635e+19
1.14359e+19
1.18963e+19
1.22407e+19
1.24665e+19
1.2572e+19
1.25568e+19
1.24213e+19
1.21667e+19
1.17945e+19
1.13056e+19
1.06985e+19
9.9674e+18
9.09915e+18
8.07053e+18
6.85038e+18
5.41551e+18
3.79251e+18
2.17691e+18
1.00003e+18
4.85351e+17
5.09341e+17
9.37567e+17
1.4259e+18
1.60159e+18
9.95961e+17
3.76856e+18
4.41764e+18
5.07835e+18
5.66856e+18
6.1924e+18
6.65357e+18
7.05046e+18
7.37953e+18
7.63734e+18
7.82125e+18
7.92963e+18
7.96179e+18
7.91786e+18
7.7986e+18
7.60503e+18
7.33795e+18
6.99704e+18
6.57956e+18
6.07876e+18
5.48279e+18
4.77617e+18
3.94787e+18
3.00946e+18
2.01494e+18
1.10007e+18
3.98849e+17
2.56936e+16
-7.79357e+16
-2.19585e+16
9.93166e+16
3.51974e+16
-3.70453e+17
3.04548e+18
2.65503e+18
2.70327e+18
2.83636e+18
2.97185e+18
3.08873e+18
3.17949e+18
3.24051e+18
3.27004e+18
3.26746e+18
3.23301e+18
3.1675e+18
3.07211e+18
2.94817e+18
2.7968e+18
2.61849e+18
2.41228e+18
2.17498e+18
1.90044e+18
1.5801e+18
1.20611e+18
7.78403e+17
3.14973e+17
-1.39416e+17
-5.07692e+17
-7.11568e+17
-8.01294e+17
-7.88325e+17
-7.99297e+17
-8.86852e+17
-1.10722e+18
-1.46979e+18
2.33859e+18
1.10925e+18
5.97063e+17
2.82804e+17
2.46906e+16
-2.16941e+17
-4.53141e+17
-6.85998e+17
-9.14387e+17
-1.13592e+18
-1.34777e+18
-1.54699e+18
-1.73086e+18
-1.89701e+18
-2.04376e+18
-2.17047e+18
-2.27807e+18
-2.36946e+18
-2.4495e+18
-2.52388e+18
-2.59615e+18
-2.66313e+18
-2.70978e+18
-2.70655e+18
-2.61143e+18
-2.38905e+18
-2.0495e+18
-1.74946e+18
-1.54639e+18
-1.57928e+18
-1.80896e+18
-2.14845e+18
1.77188e+18
-3.26336e+15
-9.59872e+17
-1.66051e+18
-2.27536e+18
-2.85324e+18
-3.4051e+18
-3.92968e+18
-4.42187e+18
-4.87556e+18
-5.28474e+18
-5.64395e+18
-5.94852e+18
-6.19466e+18
-6.37972e+18
-6.50242e+18
-6.56308e+18
-6.56377e+18
-6.50796e+18
-6.39931e+18
-6.23957e+18
-6.02573e+18
-5.74776e+18
-5.38837e+18
-4.92651e+18
-4.34967e+18
-3.67302e+18
-2.96393e+18
-2.42343e+18
-2.11456e+18
-2.13237e+18
-2.31607e+18
1.3566e+18
-6.27128e+17
-1.84257e+18
-2.80317e+18
-3.6809e+18
-4.52137e+18
-5.33015e+18
-6.10025e+18
-6.82144e+18
-7.48343e+18
-8.0769e+18
-8.59381e+18
-9.0275e+18
-9.3727e+18
-9.62561e+18
-9.78401e+18
-9.84731e+18
-9.81651e+18
-9.69373e+18
-9.48128e+18
-9.18021e+18
-8.78867e+18
-8.301e+18
-7.70834e+18
-7.00187e+18
-6.18029e+18
-5.26161e+18
-4.29334e+18
-3.36556e+18
-2.66253e+18
-2.19806e+18
-2.00045e+18
9.6629e+17
-8.85651e+17
-2.1138e+18
-3.15335e+18
-4.14901e+18
-5.13049e+18
-6.09088e+18
-7.01454e+18
-7.88515e+18
-8.68818e+18
-9.41133e+18
-1.00445e+19
-1.05795e+19
-1.10099e+19
-1.13312e+19
-1.15402e+19
-1.16355e+19
-1.16171e+19
-1.1486e+19
-1.12436e+19
-1.08904e+19
-1.04258e+19
-9.84702e+18
-9.15049e+18
-8.33395e+18
-7.40128e+18
-6.36877e+18
-5.27134e+18
-4.16231e+18
-3.108e+18
-2.17693e+18
-1.11488e+18
1.53901e+17
-1.04312e+18
-1.954e+18
-2.88226e+18
-3.83157e+18
-4.80636e+18
-5.78349e+18
-6.7362e+18
-7.64166e+18
-8.48166e+18
-9.24196e+18
-9.91152e+18
-1.04818e+19
-1.09462e+19
-1.13001e+19
-1.15401e+19
-1.16645e+19
-1.16726e+19
-1.15648e+19
-1.13416e+19
-1.10037e+19
-1.05509e+19
-9.98222e+18
-9.29688e+18
-8.49578e+18
-7.58444e+18
-6.57626e+18
-5.4946e+18
-4.37051e+18
-3.22428e+18
-2.0073e+18
-3.1608e+17
-7.7643e+17
-1.08451e+18
-1.62447e+18
-2.23485e+18
-3.00266e+18
-3.83399e+18
-4.69317e+18
-5.54335e+18
-6.356e+18
-7.11074e+18
-7.79329e+18
-8.39358e+18
-8.90445e+18
-9.32075e+18
-9.6389e+18
-9.85655e+18
-9.97245e+18
-9.98619e+18
-9.89797e+18