/*--------------------------------*- C++ -*----------------------------------*\
| =========                 |                                                 |
| \\      /  F ield         | OpenFOAM: The Open Source CFD Toolbox           |
|  \\    /   O peration     | Version:  v2012                                 |
|   \\  /    A nd           | Website:  www.openfoam.com                      |
|    \\/     M anipulation  |                                                 |
\*---------------------------------------------------------------------------*/
FoamFile
{
    version     2.0;
    format      ascii;
    class       volSymmTensorField;
    location    "1";
    object      sigma;
}
// * * * * * * * * * * * * * * * * * * * * * * * * * * * * * * * * * * * * * //

dimensions      [1 -1 -2 0 0 0 0];


internalField   nonuniform List<symmTensor> 
32768
(
(-3.04147e+18 6.55889e+17 -1.1011e+18 -1.10538e+18 1.33057e+17 -1.9958e+18)
(-6.40013e+18 1.58404e+18 -9.93622e+17 -1.84703e+18 6.5316e+17 -2.75753e+18)
(-7.94054e+18 2.02906e+18 -1.01928e+18 -2.33919e+18 8.35624e+17 -3.20045e+18)
(-8.98287e+18 2.33725e+18 -1.03609e+18 -2.7607e+18 9.09336e+17 -3.57274e+18)
(-9.81177e+18 2.58723e+18 -1.0359e+18 -3.14357e+18 9.39631e+17 -3.90321e+18)
(-1.05016e+19 2.8e+18 -1.02119e+18 -3.49346e+18 9.47489e+17 -4.19424e+18)
(-1.10725e+19 2.98108e+18 -9.94079e+17 -3.80961e+18 9.40423e+17 -4.44441e+18)
(-1.15285e+19 3.13139e+18 -9.56006e+17 -4.0895e+18 9.21577e+17 -4.65169e+18)
(-1.18692e+19 3.25047e+18 -9.08094e+17 -4.33036e+18 8.92593e+17 -4.81416e+18)
(-1.20932e+19 3.33765e+18 -8.51301e+17 -4.52976e+18 8.54545e+17 -4.93026e+18)
(-1.21992e+19 3.39237e+18 -7.86477e+17 -4.68582e+18 8.08249e+17 -4.9989e+18)
(-1.21871e+19 3.41436e+18 -7.14372e+17 -4.79723e+18 7.54365e+17 -5.01942e+18)
(-1.20575e+19 3.40365e+18 -6.35615e+17 -4.86321e+18 6.93411e+17 -4.99164e+18)
(-1.1812e+19 3.36055e+18 -5.50673e+17 -4.88349e+18 6.25732e+17 -4.91571e+18)
(-1.14532e+19 3.28564e+18 -4.59777e+17 -4.85806e+18 5.51422e+17 -4.79202e+18)
(-1.09839e+19 3.1796e+18 -3.62826e+17 -4.78686e+18 4.70214e+17 -4.62098e+18)
(-1.04074e+19 3.04307e+18 -2.59307e+17 -4.66923e+18 3.81352e+17 -4.40281e+18)
(-9.72651e+18 2.87625e+18 -1.48279e+17 -4.50289e+18 2.83521e+17 -4.1372e+18)
(-8.94296e+18 2.67848e+18 -2.8575e+16 -4.28265e+18 1.74989e+17 -3.82313e+18)
(-8.05684e+18 2.44761e+18 1.00609e+17 -3.99903e+18 5.42266e+16 -3.45886e+18)
(-7.06653e+18 2.17985e+18 2.38531e+17 -3.63815e+18 -7.86514e+16 -3.04275e+18)
(-5.97038e+18 1.87055e+18 3.8102e+17 -3.18503e+18 -2.19382e+17 -2.57562e+18)
(-4.77217e+18 1.51709e+18 5.17873e+17 -2.63325e+18 -3.56293e+17 -2.06561e+18)
(-3.49343e+18 1.12439e+18 6.28998e+17 -2.00045e+18 -4.67611e+17 -1.53715e+18)
(-2.19996e+18 7.11489e+17 6.76031e+17 -1.33934e+18 -5.21239e+17 -1.04607e+18)
(-1.06829e+18 3.19667e+17 5.79538e+17 -7.24662e+17 -4.7583e+17 -7.06546e+17)
(-6.66835e+17 8.33774e+16 1.55538e+17 -3.07976e+17 -2.66865e+17 -7.75977e+17)
(-9.42505e+17 1.12213e+17 -2.61816e+17 -3.26758e+16 9.76579e+16 -6.51456e+17)
(-1.65004e+18 3.08029e+17 -4.82408e+17 -1.01562e+17 3.27243e+17 -7.08737e+17)
(-2.31273e+18 5.13202e+17 -5.12749e+17 -2.43249e+17 4.07409e+17 -7.58104e+17)
(-2.48384e+18 5.95975e+17 -3.1503e+17 -2.64418e+17 3.45403e+17 -6.23737e+17)
(-1.082e+18 2.94025e+17 2.8836e+17 -2.66492e+15 2.51308e+17 8.6637e+15)
(-1.58517e+18 1.94971e+18 -1.97834e+18 -2.86537e+17 2.83354e+17 -2.12464e+18)
(-2.44516e+18 4.71135e+18 -9.54662e+17 7.76618e+17 1.40421e+18 -1.26088e+18)
(-3.26643e+18 5.99527e+18 -7.27948e+17 8.78752e+17 1.90422e+18 -1.0786e+18)
(-3.85582e+18 6.80461e+18 -6.65304e+17 7.46858e+17 2.13381e+18 -1.1032e+18)
(-4.30968e+18 7.40655e+18 -6.31163e+17 5.38879e+17 2.23768e+18 -1.19975e+18)
(-4.6791e+18 7.88298e+18 -5.96051e+17 2.9847e+17 2.27375e+18 -1.31974e+18)
(-4.9839e+18 8.26034e+18 -5.5457e+17 4.19433e+16 2.2664e+18 -1.44315e+18)
(-5.23087e+18 8.54701e+18 -5.06726e+17 -2.22204e+17 2.22688e+18 -1.56063e+18)
(-5.42194e+18 8.74536e+18 -4.53532e+17 -4.88337e+17 2.16108e+18 -1.66726e+18)
(-5.55751e+18 8.85601e+18 -3.96017e+17 -7.52267e+17 2.07257e+18 -1.76009e+18)
(-5.63766e+18 8.87935e+18 -3.35045e+17 -1.01077e+18 1.96381e+18 -1.83723e+18)
(-5.66264e+18 8.81612e+18 -2.71319e+17 -1.26134e+18 1.8366e+18 -1.89737e+18)
(-5.63301e+18 8.66764e+18 -2.05394e+17 -1.50201e+18 1.69225e+18 -1.9395e+18)
(-5.54964e+18 8.43581e+18 -1.37677e+17 -1.73114e+18 1.53156e+18 -1.96271e+18)
(-5.41354e+18 8.12315e+18 -6.84089e+16 -1.94703e+18 1.35466e+18 -1.96592e+18)
(-5.22568e+18 7.73265e+18 2.3602e+15 -2.14723e+18 1.16077e+18 -1.94752e+18)
(-4.98652e+18 7.26766e+18 7.47705e+16 -2.32728e+18 9.4791e+17 -1.90508e+18)
(-4.6954e+18 6.73168e+18 1.49084e+17 -2.47877e+18 7.12911e+17 -1.83497e+18)
(-4.34974e+18 6.12807e+18 2.25505e+17 -2.5868e+18 4.51911e+17 -1.73234e+18)
(-3.94432e+18 5.45992e+18 3.03869e+17 -2.62786e+18 1.6212e+17 -1.59177e+18)
(-3.47143e+18 4.72996e+18 3.83297e+17 -2.57091e+18 -1.54651e+17 -1.40924e+18)
(-2.9234e+18 3.94094e+18 4.61957e+17 -2.38568e+18 -4.86653e+17 -1.18636e+18)
(-2.29972e+18 3.09691e+18 5.36946e+17 -2.06195e+18 -8.0671e+17 -9.37296e+17)
(-1.62026e+18 2.20785e+18 6.03209e+17 -1.6335e+18 -1.07036e+18 -6.98282e+17)
(-9.40667e+17 1.30677e+18 6.47456e+17 -1.17721e+18 -1.22055e+18 -5.37576e+17)
(-3.45341e+17 5.05954e+17 6.27154e+17 -7.34645e+17 -1.18817e+18 -5.5655e+17)
(2.32979e+17 1.53621e+17 3.9256e+17 -1.38072e+17 -8.53478e+17 -7.78643e+17)
(4.82905e+17 4.57741e+17 -3.78523e+16 5.86983e+17 -1.34879e+17 -7.10844e+17)
(2.90028e+17 1.12543e+18 -2.91082e+17 1.14326e+18 5.47405e+17 -1.61034e+17)
(4.69282e+16 1.74868e+18 -3.12944e+17 1.42688e+18 8.52218e+17 3.29283e+17)
(1.23223e+17 1.95458e+18 -5.96316e+16 1.61009e+18 8.06975e+17 8.74568e+17)
(4.53892e+17 9.51063e+17 8.7916e+17 1.15664e+18 5.6288e+17 1.32311e+18)
(-6.34041e+17 2.38036e+18 -2.30304e+18 -2.46615e+16 3.35618e+17 -1.76538e+18)
(-1.91139e+17 5.9114e+18 -1.12402e+18 1.41416e+18 1.48992e+18 -6.46427e+17)
(-2.1978e+17 7.72921e+18 -6.94314e+17 1.94822e+18 2.16677e+18 -3.78346e+16)
(-2.98347e+17 8.84967e+18 -5.22365e+17 2.109e+18 2.51853e+18 2.59904e+17)
(-3.50278e+17 9.63988e+18 -4.30556e+17 2.12255e+18 2.68885e+18 4.07352e+17)
(-3.74975e+17 1.02334e+19 -3.61419e+17 2.0656e+18 2.75494e+18 4.81012e+17)
(-3.80247e+17 1.06801e+19 -2.97404e+17 1.96602e+18 2.75548e+18 5.16035e+17)
(-3.71918e+17 1.09994e+19 -2.33717e+17 1.83591e+18 2.71024e+18 5.28969e+17)
(-3.53712e+17 1.11988e+19 -1.69488e+17 1.6817e+18 2.6299e+18 5.2793e+17)
(-3.28157e+17 1.12824e+19 -1.04955e+17 1.50745e+18 2.52069e+18 5.17098e+17)
(-2.97164e+17 1.12524e+19 -4.05974e+16 1.31595e+18 2.38657e+18 4.98764e+17)
(-2.62311e+17 1.11115e+19 2.3111e+16 1.10918e+18 2.23022e+18 4.74309e+17)
(-2.24942e+17 1.08623e+19 8.57549e+16 8.88608e+17 2.0534e+18 4.44759e+17)
(-1.86144e+17 1.05081e+19 1.46984e+17 6.55505e+17 1.85707e+18 4.11166e+17)
(-1.46629e+17 1.0053e+19 2.06499e+17 4.11446e+17 1.64128e+18 3.74959e+17)
(-1.06476e+17 9.50153e+18 2.64027e+17 1.59189e+17 1.40491e+18 3.383e+17)
(-6.4681e+16 8.85884e+18 3.19266e+17 -9.58392e+16 1.14553e+18 3.04414e+17)
(-1.85223e+16 8.13069e+18 3.71816e+17 -3.43437e+17 8.59559e+17 2.77755e+17)
(3.71588e+16 7.32324e+18 4.21143e+17 -5.66357e+17 5.43308e+17 2.63727e+17)
(1.10304e+17 6.44279e+18 4.66696e+17 -7.39369e+17 1.95371e+17 2.67536e+17)
(2.10642e+17 5.49501e+18 5.08314e+17 -8.32569e+17 -1.79337e+17 2.91774e+17)
(3.45891e+17 4.48386e+18 5.46819e+17 -8.2233e+17 -5.64835e+17 3.3268e+17)
(5.14178e+17 3.41147e+18 5.8383e+17 -7.10161e+17 -9.31504e+17 3.75956e+17)
(6.9526e+17 2.28438e+18 6.18298e+17 -5.38984e+17 -1.23981e+18 3.93946e+17)
(8.52607e+17 1.13878e+18 6.36093e+17 -3.78572e+17 -1.45041e+18 3.46502e+17)
(9.63677e+17 1.01379e+17 5.92742e+17 -2.56872e+17 -1.52243e+18 1.80444e+17)
(1.11379e+18 -5.19535e+17 3.9995e+17 -6.85999e+16 -1.36735e+18 -1.46653e+17)
(1.50981e+18 -3.06014e+17 5.61574e+16 4.03873e+17 -8.22549e+17 -5.16947e+17)
(1.65552e+18 6.69015e+17 -2.58042e+17 1.03668e+18 5.94117e+16 -3.2696e+17)
(1.44244e+18 1.70388e+18 -2.76584e+17 1.53408e+18 7.24425e+17 4.28536e+17)
(1.36729e+18 2.09295e+18 5.59613e+16 1.78722e+18 8.82946e+17 1.14151e+18)
(1.13288e+18 1.02766e+18 9.77813e+17 1.37124e+18 5.87303e+17 1.78121e+18)
(-1.81408e+17 2.30968e+18 -2.20446e+18 -1.45224e+17 4.06702e+17 -1.52088e+18)
(8.51678e+17 5.85187e+18 -1.13676e+18 1.04857e+18 1.41989e+18 -4.82848e+17)
(1.35207e+18 7.8024e+18 -6.28084e+17 1.69723e+18 2.1227e+18 2.86701e+17)
(1.67648e+18 8.98338e+18 -3.81129e+17 1.99654e+18 2.51648e+18 7.70768e+17)
(1.95806e+18 9.76511e+18 -2.40797e+17 2.13888e+18 2.71022e+18 1.08511e+18)
(2.22863e+18 1.03056e+19 -1.42419e+17 2.20536e+18 2.78151e+18 1.30413e+18)
(2.49028e+18 1.06726e+19 -6.12374e+16 2.22691e+18 2.77552e+18 1.46688e+18)
(2.73836e+18 1.08966e+19 1.17439e+16 2.21589e+18 2.71746e+18 1.59294e+18)
(2.96745e+18 1.09924e+19 7.96266e+16 2.17785e+18 2.62159e+18 1.69196e+18)
(3.17273e+18 1.09686e+19 1.43394e+17 2.11561e+18 2.49624e+18 1.7686e+18)
(3.35016e+18 1.08309e+19 2.033e+17 2.03067e+18 2.34654e+18 1.8251e+18)
(3.49643e+18 1.05844e+19 2.59357e+17 1.92377e+18 2.17571e+18 1.86252e+18)
(3.60888e+18 1.02338e+19 3.11488e+17 1.79525e+18 1.98576e+18 1.88145e+18)
(3.68556e+18 9.78393e+18 3.59568e+17 1.64532e+18 1.7777e+18 1.88254e+18)
(3.72533e+18 9.24006e+18 4.03402e+17 1.47467e+18 1.55152e+18 1.86687e+18)
(3.7281e+18 8.60788e+18 4.4269e+17 1.28532e+18 1.3061e+18 1.83625e+18)
(3.69524e+18 7.89366e+18 4.76985e+17 1.08203e+18 1.0392e+18 1.79347e+18)
(3.63011e+18 7.10422e+18 5.05704e+17 8.74041e+17 7.47894e+17 1.74227e+18)
(3.53851e+18 6.24677e+18 5.28287e+17 6.76487e+17 4.29856e+17 1.6868e+18)
(3.42841e+18 5.32824e+18 5.4464e+17 5.10076e+17 8.57836e+16 1.63044e+18)
(3.30824e+18 4.35399e+18 5.55815e+17 3.9678e+17 -2.77285e+17 1.57374e+18)
(3.18288e+18 3.32615e+18 5.64428e+17 3.49956e+17 -6.43152e+17 1.51227e+18)
(3.04795e+18 2.24411e+18 5.73362e+17 3.60695e+17 -9.8687e+17 1.4354e+18)
(2.88654e+18 1.11269e+18 5.80594e+17 3.89588e+17 -1.28076e+18 1.32706e+18)
(2.67767e+18 -3.23169e+16 5.69331e+17 3.80821e+17 -1.50343e+18 1.16738e+18)
(2.42779e+18 -1.07455e+18 4.97792e+17 3.10178e+17 -1.63728e+18 9.31044e+17)
(2.22289e+18 -1.76292e+18 3.09654e+17 2.4374e+17 -1.63355e+18 5.85761e+17)
(2.22104e+18 -1.75577e+18 1.106e+16 3.40827e+17 -1.37238e+18 1.48386e+17)
(2.52178e+18 -8.39577e+17 -2.8392e+17 7.21484e+17 -7.05509e+17 -2.16348e+17)
(2.47014e+18 5.58791e+17 -3.34323e+17 1.17042e+18 1.78535e+17 8.42012e+16)
(1.96067e+18 1.40678e+18 1.64089e+16 1.40605e+18 6.63113e+17 8.81986e+17)
(1.32009e+18 7.75489e+17 7.8054e+17 1.18405e+18 4.67426e+17 1.68361e+18)
(-3.88267e+16 1.99228e+18 -1.88597e+18 -3.94419e+17 4.59887e+17 -1.34701e+18)
(1.11017e+18 5.12195e+18 -1.0001e+18 3.18361e+17 1.26691e+18 -5.34225e+17)
(1.87094e+18 6.90968e+18 -4.82725e+17 8.91977e+17 1.90184e+18 2.30767e+17)
(2.43931e+18 7.94118e+18 -1.93082e+17 1.20511e+18 2.27073e+18 7.80602e+17)
(2.9423e+18 8.544e+18 -1.77593e+16 1.38492e+18 2.44524e+18 1.17637e+18)
(3.42044e+18 8.88144e+18 1.02323e+17 1.50246e+18 2.49472e+18 1.4771e+18)
(3.87914e+18 9.03387e+18 1.94138e+17 1.58692e+18 2.46528e+18 1.7185e+18)
(4.31306e+18 9.04257e+18 2.69426e+17 1.64925e+18 2.38473e+18 1.91972e+18)
(4.71462e+18 8.93071e+18 3.33316e+17 1.69336e+18 2.26937e+18 2.09037e+18)
(5.07661e+18 8.71288e+18 3.88173e+17 1.72036e+18 2.12881e+18 2.2349e+18)
(5.39286e+18 8.39951e+18 4.35215e+17 1.73019e+18 1.96874e+18 2.35513e+18)
(5.65825e+18 7.99899e+18 4.75152e+17 1.72217e+18 1.79257e+18 2.45155e+18)
(5.86875e+18 7.5186e+18 5.08432e+17 1.69533e+18 1.60228e+18 2.52415e+18)
(6.02134e+18 6.96514e+18 5.35325e+17 1.64872e+18 1.39874e+18 2.57293e+18)
(6.11409e+18 6.34518e+18 5.55923e+17 1.58191e+18 1.18189e+18 2.59826e+18)
(6.14641e+18 5.66538e+18 5.70135e+17 1.49577e+18 9.50722e+17 2.60115e+18)
(6.1193e+18 4.93257e+18 5.77693e+17 1.39357e+18 7.03451e+17 2.58338e+18)
(6.03572e+18 4.15379e+18 5.78259e+17 1.28222e+18 4.38118e+17 2.54734e+18)
(5.90066e+18 3.336e+18 5.7172e+17 1.1729e+18 1.53822e+17 2.49544e+18)
(5.7205e+18 2.48521e+18 5.58708e+17 1.08009e+18 -1.47287e+17 2.42919e+18)
(5.50112e+18 1.6051e+18 5.41151e+17 1.01756e+18 -4.57794e+17 2.34784e+18)
(5.24463e+18 6.95836e+17 5.22171e+17 9.91006e+17 -7.63901e+17 2.24763e+18)
(4.94592e+18 -2.44534e+17 5.04095e+17 9.89318e+17 -1.04727e+18 2.12192e+18)
(4.59266e+18 -1.21132e+18 4.83378e+17 9.80633e+17 -1.29071e+18 1.96263e+18)
(4.17448e+18 -2.17158e+18 4.43218e+17 9.22344e+17 -1.48463e+18 1.76095e+18)
(3.70625e+18 -3.02845e+18 3.4905e+17 7.90935e+17 -1.62463e+18 1.50462e+18)
(3.26036e+18 -3.58809e+18 1.60933e+17 6.23477e+17 -1.68959e+18 1.17642e+18)
(2.96337e+18 -3.58449e+18 -1.18289e+17 5.34162e+17 -1.60782e+18 7.70881e+17)
(2.91273e+18 -2.81149e+18 -4.05589e+17 6.5667e+17 -1.25771e+18 3.51276e+17)
(3.02798e+18 -1.35318e+18 -5.31477e+17 9.61324e+17 -5.52371e+17 8.31474e+16)
(2.5539e+18 6.5235e+16 -2.45706e+17 1.13855e+18 1.794e+17 4.6317e+17)
(1.34196e+18 3.10139e+17 3.86107e+17 9.08317e+17 2.70283e+17 1.24585e+18)
(-1.69408e+16 1.59084e+18 -1.49724e+18 -5.92514e+17 4.63962e+17 -1.1453e+18)
(9.65973e+17 4.1373e+18 -7.92793e+17 -3.85247e+17 1.04669e+18 -6.21302e+17)
(1.73769e+18 5.60712e+18 -2.96888e+17 -9.15531e+12 1.5576e+18 2.74387e+16)
(2.37131e+18 6.36243e+18 1.84109e+16 2.32538e+17 1.85159e+18 5.42984e+17)
(2.95879e+18 6.67478e+18 2.21056e+17 3.72435e+17 1.97068e+18 9.3832e+17)
(3.53104e+18 6.70571e+18 3.58597e+17 4.73871e+17 1.97404e+18 1.25307e+18)
(4.08926e+18 6.54658e+18 4.57333e+17 5.61442e+17 1.90579e+18 1.51587e+18)
(4.62484e+18 6.25036e+18 5.30808e+17 6.43801e+17 1.79413e+18 1.74326e+18)
(5.12738e+18 5.84983e+18 5.86069e+17 7.22903e+17 1.65602e+18 1.94375e+18)
(5.58736e+18 5.367e+18 6.27029e+17 7.98117e+17 1.50134e+18 2.12108e+18)
(5.99679e+18 4.81793e+18 6.5607e+17 8.67829e+17 1.3357e+18 2.27643e+18)
(6.34919e+18 4.21517e+18 6.74779e+17 9.30024e+17 1.16223e+18 2.40969e+18)
(6.63942e+18 3.56912e+18 6.84277e+17 9.82565e+17 9.82504e+17 2.52021e+18)
(6.86365e+18 2.88875e+18 6.85352e+17 1.02344e+18 7.97043e+17 2.60732e+18)
(7.01931e+18 2.18217e+18 6.78524e+17 1.05118e+18 6.05561e+17 2.67065e+18)
(7.10518e+18 1.4569e+18 6.64073e+17 1.06543e+18 4.07096e+17 2.71031e+18)
(7.12161e+18 7.20087e+17 6.4211e+17 1.06776e+18 2.00274e+17 2.72698e+18)
(7.07063e+18 -2.14716e+16 6.12754e+17 1.06242e+18 -1.61146e+16 2.72166e+18)
(6.95578e+18 -7.61694e+17 5.76451e+17 1.05646e+18 -2.42073e+17 2.69525e+18)
(6.78137e+18 -1.496e+18 5.34413e+17 1.05866e+18 -4.74993e+17 2.64787e+18)
(6.55077e+18 -2.22241e+18 4.88905e+17 1.07641e+18 -7.08395e+17 2.57821e+18)
(6.26414e+18 -2.94206e+18 4.42765e+17 1.11062e+18 -9.3183e+17 2.4834e+18)
(5.91664e+18 -3.65711e+18 3.97324e+17 1.1504e+18 -1.133e+18 2.35956e+18)
(5.49982e+18 -4.36275e+18 3.48275e+17 1.171e+18 -1.30222e+18 2.20293e+18)
(5.00937e+18 -5.03034e+18 2.80661e+17 1.14025e+18 -1.43666e+18 2.00992e+18)
(4.46093e+18 -5.58273e+18 1.67226e+17 1.03674e+18 -1.53857e+18 1.77481e+18)
(3.90895e+18 -5.87388e+18 -2.14784e+16 8.77084e+17 -1.60152e+18 1.488e+18)
(3.44663e+18 -5.70266e+18 -2.88396e+17 7.3654e+17 -1.58797e+18 1.1442e+18)
(3.16022e+18 -4.88979e+18 -5.80392e+17 7.29311e+17 -1.41645e+18 7.63303e+17)
(3.02137e+18 -3.42724e+18 -7.77624e+17 9.10533e+17 -9.97429e+17 4.33018e+17)
(2.72782e+18 -1.66488e+18 -7.147e+17 1.06255e+18 -3.46325e+17 2.90609e+17)
(1.47809e+18 -3.90347e+17 -2.56981e+17 7.76204e+17 5.50132e+16 6.95064e+17)
(8.54033e+16 1.17003e+18 -1.10061e+18 -5.93964e+17 4.0058e+17 -8.20702e+17)
(7.99998e+17 3.11918e+18 -6.06588e+17 -7.7798e+17 7.815e+17 -5.9685e+17)
(1.33517e+18 4.26857e+18 -1.3474e+17 -6.66505e+17 1.14583e+18 -1.4204e+17)
(1.84661e+18 4.72399e+18 2.06196e+17 -5.96985e+17 1.32974e+18 2.56009e+17)
(2.37351e+18 4.71006e+18 4.36615e+17 -5.64509e+17 1.36318e+18 5.76386e+17)
(2.91681e+18 4.39304e+18 5.91709e+17 -5.38104e+17 1.29877e+18 8.39424e+17)
(3.46416e+18 3.87917e+18 6.96711e+17 -5.01701e+17 1.17795e+18 1.06497e+18)
(4.00037e+18 3.23567e+18 7.67029e+17 -4.50537e+17 1.02779e+18 1.26567e+18)
(4.51153e+18 2.50662e+18 8.11922e+17 -3.85113e+17 8.64456e+17 1.4481e+18)
(4.98615e+18 1.72258e+18 8.37156e+17 -3.079e+17 6.97026e+17 1.61498e+18)
(5.41515e+18 9.05847e+17 8.46523e+17 -2.21964e+17 5.3025e+17 1.76678e+18)
(5.79147e+18 7.35271e+16 8.42655e+17 -1.30465e+17 3.66355e+17 1.90281e+18)
(6.1097e+18 -7.60739e+17 8.2745e+17 -3.64735e+16 2.06101e+17 2.02192e+18)
(6.36582e+18 -1.5857e+18 8.02292e+17 5.71999e+16 4.93566e+16 2.12293e+18)
(6.5571e+18 -2.39183e+18 7.68184e+17 1.4826e+17 -1.046e+17 2.20486e+18)
(6.68207e+18 -3.17082e+18 7.25838e+17 2.35335e+17 -2.56882e+17 2.2671e+18)
(6.74059e+18 -3.91538e+18 6.758e+17 3.18475e+17 -4.08715e+17 2.30943e+18)
(6.7338e+18 -4.6192e+18 6.18649e+17 3.99546e+17 -5.60956e+17 2.33179e+18)
(6.66384e+18 -5.27718e+18 5.55286e+17 4.82162e+17 -7.13335e+17 2.334e+18)
(6.53317e+18 -5.88611e+18 4.87236e+17 5.70704e+17 -8.63569e+17 2.31537e+18)
(6.34321e+18 -6.44528e+18 4.16709e+17 6.68084e+17 -1.00677e+18 2.27436e+18)
(6.09293e+18 -6.95648e+18 3.45968e+17 7.72436e+17 -1.13578e+18 2.20877e+18)
(5.77807e+18 -7.42157e+18 2.7551e+17 8.73798e+17 -1.24309e+18 2.11624e+18)
(5.39283e+18 -7.83585e+18 2.00993e+17 9.52968e+17 -1.32394e+18 1.99487e+18)
(4.93581e+18 -8.17539e+18 1.09987e+17 9.85372e+17 -1.37907e+18 1.84308e+18)
(4.42037e+18 -8.38006e+18 -1.85029e+16 9.52115e+17 -1.41338e+18 1.65783e+18)
(3.88552e+18 -8.34033e+18 -2.06903e+17 8.5733e+17 -1.42725e+18 1.4331e+18)
(3.39531e+18 -7.90454e+18 -4.61525e+17 7.44452e+17 -1.40171e+18 1.16279e+18)
(3.0112e+18 -6.9233e+18 -7.52828e+17 6.93529e+17 -1.28661e+18 8.51297e+17)
(2.72268e+18 -5.33623e+18 -1.00553e+18 7.67793e+17 -1.01062e+18 5.30342e+17)
(2.30801e+18 -3.27877e+18 -1.12312e+18 8.75009e+17 -5.49525e+17 2.83696e+17)
(1.03312e+18 -1.08246e+18 -1.09197e+18 4.76739e+17 -7.0247e+16 1.47871e+17)
(5.42369e+17 6.61139e+17 -6.41132e+17 -1.80823e+17 2.35419e+17 -2.28702e+17)
(1.0342e+18 2.05807e+18 -5.4739e+17 -5.45782e+17 5.15176e+17 -3.03435e+17)
(9.93621e+17 3.08055e+18 -6.23949e+16 -8.88065e+17 7.37677e+17 -1.51529e+17)
(1.2013e+18 3.32434e+18 3.20777e+17 -1.06997e+18 7.91859e+17 7.19459e+16)
(1.53759e+18 3.02619e+18 5.88279e+17 -1.20359e+18 7.14196e+17 2.58605e+17)
(1.94267e+18 2.38393e+18 7.65197e+17 -1.29863e+18 5.61986e+17 4.14292e+17)
(2.37778e+18 1.53027e+18 8.77992e+17 -1.35541e+18 3.75875e+17 5.50758e+17)
(2.81695e+18 5.51446e+17 9.45372e+17 -1.37629e+18 1.80758e+17 6.76235e+17)
(3.24212e+18 -4.95149e+17 9.79747e+17 -1.36543e+18 -9.52231e+15 7.94949e+17)
(3.64059e+18 -1.56989e+18 9.89335e+17 -1.3275e+18 -1.88076e+17 9.08284e+17)
(4.00343e+18 -2.64431e+18 9.79676e+17 -1.26701e+18 -3.52074e+17 1.01594e+18)
(4.32427e+18 -3.69711e+18 9.54617e+17 -1.18809e+18 -5.00923e+17 1.11678e+18)
(4.59859e+18 -4.71188e+18 9.16902e+17 -1.09446e+18 -6.35188e+17 1.20932e+18)
(4.82322e+18 -5.67562e+18 8.68525e+17 -9.89446e+17 -7.56019e+17 1.29208e+18)
(4.99616e+18 -6.57779e+18 8.1095e+17 -8.75828e+17 -8.64835e+17 1.36378e+18)
(5.11637e+18 -7.40972e+18 7.45283e+17 -7.55654e+17 -9.63141e+17 1.42343e+18)
(5.18377e+18 -8.16429e+18 6.72432e+17 -6.2997e+17 -1.0523e+18 1.47025e+18)
(5.19913e+18 -8.83584e+18 5.93318e+17 -4.98655e+17 -1.13321e+18 1.5036e+18)
(5.16373e+18 -9.42029e+18 5.09103e+17 -3.60587e+17 -1.20579e+18 1.52273e+18)
(5.07878e+18 -9.91555e+18 4.21375e+17 -2.14411e+17 -1.26853e+18 1.52655e+18)
(4.94451e+18 -1.03218e+19 3.32075e+17 -6.00761e+16 -1.31828e+18 1.51355e+18)
(4.75931e+18 -1.0641e+19 2.42871e+17 9.90268e+16 -1.35075e+18 1.48195e+18)
(4.51952e+18 -1.08747e+19 1.53715e+17 2.53985e+17 -1.36192e+18 1.43008e+18)
(4.22107e+18 -1.10185e+19 6.06725e+16 3.89612e+17 -1.35024e+18 1.35666e+18)
(3.86362e+18 -1.1053e+19 -4.61378e+16 4.86661e+17 -1.31819e+18 1.26051e+18)
(3.45734e+18 -1.09317e+19 -1.82576e+17 5.2835e+17 -1.2713e+18 1.13937e+18)
(3.02924e+18 -1.05723e+19 -3.65753e+17 5.11013e+17 -1.21266e+18 9.88513e+17)
(2.62188e+18 -9.85912e+18 -6.03222e+17 4.55038e+17 -1.13324e+18 8.01618e+17)
(2.27523e+18 -8.66753e+18 -8.80287e+17 4.06076e+17 -1.00317e+18 5.75712e+17)
(1.98014e+18 -6.90915e+18 -1.15489e+18 4.07372e+17 -7.7572e+17 3.22565e+17)
(1.58994e+18 -4.57168e+18 -1.38615e+18 4.20025e+17 -4.28034e+17 8.99512e+16)
(6.81936e+17 -1.63108e+18 -1.6868e+18 2.19488e+17 -9.26064e+16 2.10621e+16)
(5.33582e+17 2.38207e+17 -2.55397e+17 7.1563e+16 9.59737e+16 2.93197e+16)
(1.05154e+18 1.1172e+18 -6.66608e+17 -6.57812e+16 3.17705e+17 -5.60463e+16)
(9.37193e+17 2.0886e+18 -2.13091e+17 -4.88665e+17 4.88891e+17 1.52882e+17)
(6.61184e+17 2.31058e+18 3.00373e+17 -1.07252e+18 3.64402e+17 1.06054e+17)
(7.24365e+17 1.82964e+18 6.37913e+17 -1.42536e+18 1.37515e+17 1.12898e+17)
(9.26038e+17 9.32999e+17 8.49987e+17 -1.67084e+18 -1.29555e+17 1.1896e+17)
(1.18394e+18 -1.98835e+17 9.75045e+17 -1.8434e+18 -3.96627e+17 1.27663e+17)
(1.45654e+18 -1.45334e+18 1.04041e+18 -1.95879e+18 -6.43721e+17 1.41557e+17)
(1.72159e+18 -2.7582e+18 1.06429e+18 -2.02707e+18 -8.62263e+17 1.61494e+17)
(1.9669e+18 -4.06527e+18 1.05864e+18 -2.05581e+18 -1.04986e+18 1.86973e+17)
(2.18566e+18 -5.34127e+18 1.03135e+18 -2.05105e+18 -1.20724e+18 2.16707e+17)
(2.37407e+18 -6.56228e+18 9.87687e+17 -2.01775e+18 -1.33653e+18 2.49087e+17)
(2.5301e+18 -7.71057e+18 9.31283e+17 -1.96006e+18 -1.44031e+18 2.82474e+17)
(2.65283e+18 -8.77264e+18 8.64688e+17 -1.88146e+18 -1.52119e+18 3.15369e+17)
(2.74207e+18 -9.73803e+18 7.89734e+17 -1.78489e+18 -1.58158e+18 3.46499e+17)
(2.7982e+18 -1.05986e+19 7.07792e+17 -1.67264e+18 -1.6236e+18 3.74831e+17)
(2.82208e+18 -1.1348e+19 6.1998e+17 -1.54632e+18 -1.649e+18 3.99517e+17)
(2.81484e+18 -1.19816e+19 5.2737e+17 -1.40683e+18 -1.65896e+18 4.1978e+17)
(2.7777e+18 -1.24966e+19 4.31173e+17 -1.25456e+18 -1.65388e+18 4.34763e+17)
(2.71144e+18 -1.28918e+19 3.32841e+17 -1.08997e+18 -1.63316e+18 4.43404e+17)
(2.61591e+18 -1.31682e+19 2.33938e+17 -9.1462e+17 -1.59526e+18 4.44402e+17)
(2.48948e+18 -1.33277e+19 1.35604e+17 -7.32545e+17 -1.53815e+18 4.36339e+17)
(2.32921e+18 -1.33718e+19 3.74809e+16 -5.51618e+17 -1.46037e+18 4.17894e+17)
(2.13213e+18 -1.32965e+19 -6.37675e+16 -3.84116e+17 -1.36242e+18 3.87949e+17)
(1.89824e+18 -1.30865e+19 -1.7574e+17 -2.45573e+17 -1.24771e+18 3.45299e+17)
(1.63479e+18 -1.27059e+19 -3.10185e+17 -1.51117e+17 -1.12185e+18 2.87851e+17)
(1.36013e+18 -1.20926e+19 -4.79952e+17 -1.09267e+17 -9.89214e+17 2.11833e+17)
(1.10271e+18 -1.11576e+19 -6.92474e+17 -1.15141e+17 -8.47285e+17 1.12375e+17)
(8.89936e+17 -9.79601e+18 -9.42465e+17 -1.48131e+17 -6.81871e+17 -1.2421e+16)
(7.22532e+17 -7.90653e+18 -1.21242e+18 -1.81243e+17 -4.72057e+17 -1.49266e+17)
(5.39329e+17 -5.38723e+18 -1.50827e+18 -1.95213e+17 -2.24766e+17 -2.35741e+17)
(2.49143e+17 -1.97826e+18 -2.02962e+18 -6.43354e+16 -8.79042e+16 -4.86146e+16)
(2.20841e+17 -4.39072e+16 8.26324e+15 -1.76861e+16 1.00309e+17 -1.65597e+17)
(6.60327e+17 5.09567e+17 -6.8778e+17 1.16871e+17 2.92652e+17 -8.84896e+16)
(6.49648e+17 1.4754e+18 -5.21894e+17 1.49245e+16 4.78358e+17 2.73077e+17)
(2.94947e+17 1.75348e+18 7.32876e+16 -5.56819e+17 2.67608e+17 4.81412e+17)
(4.37579e+16 1.21533e+18 5.57832e+17 -1.22028e+18 -2.09932e+17 2.26851e+17)
(5.83616e+16 1.42428e+17 8.31916e+17 -1.62741e+18 -6.52066e+17 4.65102e+16)
(1.42771e+17 -1.1913e+18 9.77835e+17 -1.91318e+18 -1.03174e+18 -9.8466e+16)
(2.34551e+17 -2.63788e+18 1.04214e+18 -2.12061e+18 -1.34433e+18 -2.16529e+17)
(3.0959e+17 -4.11037e+18 1.05432e+18 -2.26957e+18 -1.5943e+18 -3.13839e+17)
(3.60089e+17 -5.55532e+18 1.03261e+18 -2.37148e+18 -1.78886e+18 -3.94707e+17)
(3.85075e+17 -6.93835e+18 9.8822e+17 -2.434e+18 -1.93546e+18 -4.62304e+17)
(3.8625e+17 -8.23628e+18 9.28139e+17 -2.46275e+18 -2.0408e+18 -5.1902e+17)
(3.66306e+17 -9.43293e+18 8.56887e+17 -2.46199e+18 -2.11061e+18 -5.6667e+17)
(3.28238e+17 -1.05167e+19 7.77445e+17 -2.43511e+18 -2.14954e+18 -6.06615e+17)
(2.75051e+17 -1.1479e+19 6.91839e+17 -2.38478e+18 -2.16136e+18 -6.39855e+17)
(2.09635e+17 -1.23137e+19 6.01506e+17 -2.31314e+18 -2.14904e+18 -6.6711e+17)
(1.34695e+17 -1.30165e+19 5.0756e+17 -2.22183e+18 -2.11484e+18 -6.88924e+17)
(5.26546e+16 -1.35844e+19 4.11007e+17 -2.1121e+18 -2.06038e+18 -7.05784e+17)
(-3.45134e+16 -1.40163e+19 3.12896e+17 -1.985e+18 -1.98658e+18 -7.18233e+17)
(-1.25565e+17 -1.43124e+19 2.14378e+17 -1.84178e+18 -1.89372e+18 -7.26963e+17)
(-2.20308e+17 -1.44743e+19 1.16581e+17 -1.68467e+18 -1.78155e+18 -7.32834e+17)
(-3.19793e+17 -1.45044e+19 2.0181e+16 -1.51769e+18 -1.64977e+18 -7.36801e+17)
(-4.26066e+17 -1.44039e+19 -7.53573e+16 -1.34765e+18 -1.49873e+18 -7.39815e+17)
(-5.41106e+17 -1.41698e+19 -1.72759e+17 -1.18456e+18 -1.33039e+18 -7.42791e+17)
(-6.6472e+17 -1.37902e+19 -2.77726e+17 -1.04121e+18 -1.14882e+18 -7.4679e+17)
(-7.91629e+17 -1.32378e+19 -3.98792e+17 -9.31248e+17 -9.59901e+17 -7.53401e+17)
(-9.08908e+17 -1.24654e+19 -5.45427e+17 -8.657e+17 -7.6944e+17 -7.64845e+17)
(-9.95881e+17 -1.14044e+19 -7.24292e+17 -8.48589e+17 -5.80524e+17 -7.8263e+17)
(-1.02833e+18 -9.96794e+18 -9.35831e+17 -8.72769e+17 -3.92479e+17 -8.02307e+17)
(-9.84119e+17 -8.05484e+18 -1.17872e+18 -9.12844e+17 -2.07972e+17 -7.98558e+17)
(-8.23913e+17 -5.52539e+18 -1.4859e+18 -8.82107e+17 -6.12932e+16 -6.85064e+17)
(-3.18691e+17 -2.04259e+18 -2.06863e+18 -3.80951e+17 -8.56787e+16 -2.10448e+17)
(-3.26181e+17 -1.28619e+17 8.07342e+16 -3.30866e+17 1.87685e+17 -6.45835e+17)
(-1.86601e+17 2.88494e+17 -6.6645e+17 -1.8229e+17 4.44933e+17 -4.60376e+17)
(2.29131e+16 1.33139e+18 -6.69607e+17 9.01431e+16 6.42141e+17 -2.84719e+16)
(-2.38399e+17 1.79946e+18 -2.53707e+17 -8.06452e+16 5.20747e+17 5.18001e+17)
(-5.87206e+17 1.26825e+18 3.35472e+17 -6.66571e+17 -9.92367e+16 6.51366e+17)
(-6.69712e+17 4.91675e+16 7.19601e+17 -1.25752e+18 -8.50213e+17 2.38726e+17)
(-6.51379e+17 -1.45318e+18 8.991e+17 -1.62664e+18 -1.41745e+18 -8.10572e+16)
(-6.70921e+17 -3.02807e+18 9.62039e+17 -1.89432e+18 -1.82976e+18 -3.38431e+17)
(-7.49623e+17 -4.57888e+18 9.584e+17 -2.09851e+18 -2.12275e+18 -5.54006e+17)
(-8.81744e+17 -6.05606e+18 9.16922e+17 -2.2555e+18 -2.32476e+18 -7.40772e+17)
(-1.05505e+18 -7.43245e+18 8.53567e+17 -2.37423e+18 -2.45659e+18 -9.06277e+17)
(-1.25729e+18 -8.69223e+18 7.77397e+17 -2.46042e+18 -2.53323e+18 -1.05482e+18)
(-1.47772e+18 -9.82572e+18 6.93711e+17 -2.51805e+18 -2.56546e+18 -1.18883e+18)
(-1.7072e+18 -1.08269e+19 6.0568e+17 -2.54996e+18 -2.56105e+18 -1.30959e+18)
(-1.93798e+18 -1.16923e+19 5.15248e+17 -2.55822e+18 -2.52561e+18 -1.41773e+18)
(-2.16353e+18 -1.24196e+19 4.23645e+17 -2.54441e+18 -2.46319e+18 -1.51342e+18)
(-2.37839e+18 -1.30082e+19 3.31721e+17 -2.50976e+18 -2.37667e+18 -1.59664e+18)
(-2.57806e+18 -1.34582e+19 2.40174e+17 -2.45527e+18 -2.26811e+18 -1.66726e+18)
(-2.75905e+18 -1.37708e+19 1.4969e+17 -2.38199e+18 -2.13889e+18 -1.72521e+18)
(-2.91894e+18 -1.39481e+19 6.0984e+16 -2.29123e+18 -1.98996e+18 -1.77052e+18)
(-3.05654e+18 -1.39929e+19 -2.53082e+16 -2.18516e+18 -1.82204e+18 -1.80339e+18)
(-3.17186e+18 -1.39084e+19 -1.08941e+17 -2.06731e+18 -1.63605e+18 -1.82413e+18)
(-3.26575e+18 -1.36961e+19 -1.90579e+17 -1.94331e+18 -1.43364e+18 -1.83312e+18)
(-3.33909e+18 -1.33542e+19 -2.72423e+17 -1.82124e+18 -1.21784e+18 -1.83076e+18)
(-3.39116e+18 -1.28738e+19 -3.58674e+17 -1.71159e+18 -9.93461e+17 -1.81751e+18)
(-3.41747e+18 -1.22346e+19 -4.55394e+17 -1.62635e+18 -7.67092e+17 -1.79382e+18)
(-3.40754e+18 -1.14014e+19 -5.69336e+17 -1.57688e+18 -5.46524e+17 -1.75949e+18)
(-3.34295e+18 -1.03223e+19 -7.05874e+17 -1.57043e+18 -3.40238e+17 -1.71128e+18)
(-3.19461e+18 -8.92899e+18 -8.67663e+17 -1.60294e+18 -1.58894e+17 -1.63629e+18)
(-2.9093e+18 -7.13633e+18 -1.05929e+18 -1.63799e+18 -2.24819e+16 -1.49573e+18)
(-2.34327e+18 -4.82497e+18 -1.31155e+18 -1.52616e+18 2.38436e+16 -1.18849e+18)
(-9.81783e+17 -1.76079e+18 -1.75648e+18 -7.02161e+17 -9.39178e+16 -4.88205e+17)
(-1.00857e+18 3.82326e+16 -9.43712e+16 -7.51238e+17 3.12578e+17 -1.27425e+18)
(-1.31383e+18 6.01641e+17 -6.5379e+17 -7.19368e+17 6.81801e+17 -9.96547e+17)
(-1.05633e+18 1.66693e+18 -6.9689e+17 -3.24999e+17 8.9971e+17 -5.70679e+17)
(-9.41605e+17 2.37173e+18 -3.99286e+17 -8.17581e+16 8.87048e+17 1.46224e+16)
(-1.27343e+18 2.06635e+18 8.80289e+16 -2.77805e+17 4.14052e+17 6.22432e+17)
(-1.47205e+18 7.40055e+17 5.5589e+17 -7.52726e+17 -5.28291e+17 6.64249e+17)
(-1.31695e+18 -1.00701e+18 7.82268e+17 -1.15698e+18 -1.42816e+18 1.71474e+17)
(-1.26803e+18 -2.7321e+18 8.3895e+17 -1.42176e+18 -2.02085e+18 -2.28869e+17)
(-1.37904e+18 -4.32196e+18 8.09488e+17 -1.62829e+18 -2.39059e+18 -5.53065e+17)
(-1.61527e+18 -5.75096e+18 7.39411e+17 -1.79864e+18 -2.60944e+18 -8.29642e+17)
(-1.9365e+18 -7.01686e+18 6.51189e+17 -1.94105e+18 -2.7252e+18 -1.07573e+18)
(-2.31057e+18 -8.12351e+18 5.56048e+17 -2.05995e+18 -2.76843e+18 -1.3003e+18)
(-2.71318e+18 -9.07625e+18 4.59684e+17 -2.158e+18 -2.75874e+18 -1.50766e+18)
(-3.12583e+18 -9.88059e+18 3.6498e+17 -2.23687e+18 -2.70883e+18 -1.69959e+18)
(-3.53419e+18 -1.05418e+19 2.73352e+17 -2.29756e+18 -2.62703e+18 -1.87647e+18)
(-3.92693e+18 -1.10651e+19 1.8544e+17 -2.34069e+18 -2.5188e+18 -2.03795e+18)
(-4.29505e+18 -1.14552e+19 1.01515e+17 -2.36664e+18 -2.38775e+18 -2.18329e+18)
(-4.6314e+18 -1.1717e+19 2.17065e+16 -2.37581e+18 -2.2363e+18 -2.31159e+18)
(-4.93047e+18 -1.18551e+19 -5.38583e+16 -2.36871e+18 -2.06616e+18 -2.42198e+18)
(-5.18825e+18 -1.18744e+19 -1.25027e+17 -2.34622e+18 -1.87867e+18 -2.51368e+18)
(-5.40212e+18 -1.17796e+19 -1.91703e+17 -2.30996e+18 -1.67517e+18 -2.58606e+18)
(-5.57072e+18 -1.15751e+19 -2.54066e+17 -2.26267e+18 -1.4574e+18 -2.6386e+18)
(-5.69353e+18 -1.12634e+19 -3.12912e+17 -2.20866e+18 -1.22789e+18 -2.67088e+18)
(-5.77009e+18 -1.08443e+19 -3.70037e+17 -2.15423e+18 -9.90538e+17 -2.68245e+18)
(-5.79869e+18 -1.03118e+19 -4.28485e+17 -2.10767e+18 -7.50988e+17 -2.67266e+18)
(-5.77447e+18 -9.65156e+18 -4.92387e+17 -2.07885e+18 -5.16982e+17 -2.64021e+18)
(-5.68686e+18 -8.83886e+18 -5.66168e+17 -2.07756e+18 -2.98685e+17 -2.58178e+18)
(-5.51548e+18 -7.83733e+18 -6.53158e+17 -2.10965e+18 -1.09569e+17 -2.48882e+18)
(-5.22077e+18 -6.60073e+18 -7.54347e+17 -2.16652e+18 3.11092e+16 -2.34013e+18)
(-4.71439e+18 -5.07873e+18 -8.6856e+17 -2.19395e+18 9.3877e+16 -2.08687e+18)