/*--------------------------------*- C++ -*----------------------------------*\
| =========                 |                                                 |
| \\      /  F ield         | OpenFOAM: The Open Source CFD Toolbox           |
|  \\    /   O peration     | Version:  v2012                                 |
|   \\  /    A nd           | Website:  www.openfoam.com                      |
|    \\/     M anipulation  |                                                 |
\*---------------------------------------------------------------------------*/
FoamFile
{
    version     2.0;
    format      ascii;
    class       volScalarField;
    location    "1";
    object      epsilonEq;
}
// * * * * * * * * * * * * * * * * * * * * * * * * * * * * * * * * * * * * * //

dimensions      [0 0 0 0 0 0 0];


internalField   nonuniform List<scalar> 
4096
(
1.25724e+06
2.49096e+06
3.09453e+06
3.42261e+06
3.57577e+06
3.57945e+06
3.44215e+06
3.15969e+06
2.69853e+06
2.02525e+06
1.25177e+06
807995
1.30559e+06
2.13945e+06
2.66559e+06
1.66791e+06
3.21001e+06
5.56139e+06
6.74756e+06
7.28847e+06
7.43387e+06
7.25667e+06
6.78617e+06
6.04543e+06
5.062e+06
3.83325e+06
2.33043e+06
1.39782e+06
2.26707e+06
3.57644e+06
4.30705e+06
3.00934e+06
4.74919e+06
8.02374e+06
9.65548e+06
1.03231e+07
1.04018e+07
1.00144e+07
9.21764e+06
8.05983e+06
6.60493e+06
4.91077e+06
3.03822e+06
1.40805e+06
1.94873e+06
3.5555e+06
4.40563e+06
3.08151e+06
4.68896e+06
8.02674e+06
9.61833e+06
1.0161e+07
1.00774e+07
9.52557e+06
8.58417e+06
7.31574e+06
5.79631e+06
4.12225e+06
2.45467e+06
1.28357e+06
1.26487e+06
2.29472e+06
3.06349e+06
2.16487e+06
3.23064e+06
5.67652e+06
6.70418e+06
6.8692e+06
6.56985e+06
5.98449e+06
5.21327e+06
4.34481e+06
3.50019e+06
2.86625e+06
2.65604e+06
2.79301e+06
2.68748e+06
2.06181e+06
1.60275e+06
1.02851e+06
1.4231e+06
2.5763e+06
3.01213e+06
3.19682e+06
3.50489e+06
3.98753e+06
4.55184e+06
5.09822e+06
5.55096e+06
5.84809e+06
5.92742e+06
5.69905e+06
5.00121e+06
3.67721e+06
1.97389e+06
500895
249782
871106
2.07746e+06
3.60605e+06
5.12986e+06
6.45949e+06
7.51467e+06
8.25863e+06
8.66669e+06
8.71493e+06
8.37537e+06
7.6131e+06
6.39037e+06
4.70589e+06
2.75822e+06
1.11964e+06
414622
1.09863e+06
2.5689e+06
4.34212e+06
5.93576e+06
7.16733e+06
8.01626e+06
8.49686e+06
8.61863e+06
8.38229e+06
7.78361e+06
6.82038e+06
5.51001e+06
3.92466e+06
2.25429e+06
901135
934876
1.46113e+06
2.02818e+06
3.3342e+06
4.54236e+06
5.26895e+06
5.61295e+06
5.68707e+06
5.55132e+06
5.23587e+06
4.76526e+06
4.17729e+06
3.53937e+06
2.92918e+06
2.27289e+06
1.11868e+06
1.97876e+06
2.92585e+06
2.55141e+06
2.031e+06
2.33932e+06
2.61126e+06
2.8543e+06
3.34698e+06
4.02352e+06
4.73775e+06
5.39085e+06
5.91453e+06
6.2295e+06
6.17663e+06
5.35995e+06
3.20346e+06
3.29702e+06
4.84336e+06
4.35344e+06
2.72618e+06
1.47042e+06
1.85385e+06
3.20384e+06
4.82942e+06
6.37595e+06
7.69611e+06
8.72681e+06
9.41562e+06
9.681e+06
9.34421e+06
7.93723e+06
4.82145e+06
4.15625e+06
6.11916e+06
5.61736e+06
3.86753e+06
2.01335e+06
1.96827e+06
3.68789e+06
5.54251e+06
7.16868e+06
8.46445e+06
9.40762e+06
9.96624e+06
1.00699e+07
9.5551e+06
7.98898e+06
4.75061e+06
3.77656e+06
5.72576e+06
5.31163e+06
3.77956e+06
2.0961e+06
1.32284e+06
2.65182e+06
4.32118e+06
5.59932e+06
6.47529e+06
7.03153e+06
7.28786e+06
7.20642e+06
6.67635e+06
5.41947e+06
3.00011e+06
2.25483e+06
3.6642e+06
3.4312e+06
2.44543e+06
1.38616e+06
673788
1.30445e+06
2.54649e+06
3.31415e+06
3.66176e+06
3.75666e+06
3.69425e+06
3.48385e+06
3.09541e+06
2.44834e+06
984921
797547
1.62565e+06
1.54439e+06
1.19651e+06
1.00883e+06
1.00187e+06
1.00304e+06
1.42549e+06
1.70023e+06
1.51842e+06
1.28681e+06
1.11654e+06
1.13569e+06
1.37575e+06
1.66211e+06
1.20029e+06
490944
849850
848644
944422
1.09736e+06
1.18233e+06
1.10506e+06
906546
740700
638923
577578
748004
1.07535e+06
1.45158e+06
1.74124e+06
1.089e+06
1.17966e+06
2.72452e+06
3.21824e+06
3.44695e+06
3.53532e+06
3.50621e+06
3.3641e+06
3.15363e+06
2.963e+06
2.53856e+06
1.76901e+06
1.32199e+06
1.71039e+06
2.41244e+06
2.83659e+06
1.60182e+06
3.67877e+06
7.60667e+06
8.42383e+06
8.47244e+06
8.11441e+06
7.43093e+06
6.47315e+06
5.31974e+06
4.12224e+06
3.35974e+06
2.84039e+06
2.12516e+06
2.87011e+06
3.97347e+06
4.51955e+06
3.00601e+06
4.88425e+06
7.13531e+06
7.59877e+06
7.44536e+06
6.97931e+06
6.27209e+06
5.37887e+06
4.36662e+06
3.28094e+06
2.4024e+06
2.19217e+06
1.47608e+06
2.08023e+06
2.93036e+06
2.81335e+06
3.14451e+06
5.19067e+06
3.35015e+06
2.63947e+06
2.16012e+06
1.93807e+06
1.99183e+06
2.25319e+06
2.59534e+06
2.86933e+06
2.96262e+06
2.77971e+06
2.05553e+06
1.76971e+06
2.64256e+06
1.90931e+06
2.83757e+06
4.82044e+06
3.16014e+06
4.02326e+06
5.17047e+06
6.11098e+06
6.7755e+06
7.15381e+06
7.23926e+06
7.02513e+06
6.50005e+06
5.63193e+06
4.41864e+06
3.38841e+06
3.49637e+06
2.88604e+06
2.16132e+06
3.86528e+06
5.07362e+06
7.115e+06
8.77681e+06
9.92767e+06
1.05825e+07
1.07727e+07
1.05219e+07
9.85456e+06
8.81077e+06
7.45025e+06
5.85482e+06
4.3013e+06
3.65649e+06
3.25742e+06
1.34525e+06
2.55666e+06
4.45804e+06
6.55523e+06
8.09963e+06
9.03289e+06
9.44312e+06
9.41628e+06
9.0084e+06
8.26096e+06
7.22942e+06
6.00681e+06
4.71849e+06
3.50378e+06
2.67198e+06
2.4393e+06
1.21713e+06
1.58824e+06
2.5867e+06
4.00653e+06
4.7819e+06
4.89162e+06
4.59459e+06
4.09722e+06
3.53054e+06
2.99517e+06
2.61481e+06
2.52172e+06
2.6975e+06
2.89484e+06
2.81397e+06
2.29526e+06
1.61867e+06
1.30039e+06
1.42429e+06
2.49295e+06
2.56378e+06
2.11008e+06
2.23286e+06
3.15175e+06
4.28277e+06
5.32627e+06
6.17273e+06
6.75758e+06
7.01336e+06
6.85653e+06
6.16825e+06
4.71009e+06
1.95894e+06
2.28544e+06
2.59327e+06
3.19428e+06
3.38218e+06
3.34001e+06
4.57476e+06
6.27553e+06
7.83521e+06
9.06423e+06
9.90485e+06
1.03247e+07
1.02894e+07
9.76417e+06
8.70334e+06
6.90774e+06
3.49446e+06
3.79621e+06
3.56442e+06
3.44223e+06
3.85264e+06
3.50495e+06
4.36738e+06
5.91668e+06
7.2558e+06
8.22168e+06
8.81116e+06
9.0317e+06
8.88158e+06
8.36735e+06
7.52057e+06
6.34558e+06
5.14068e+06
4.8484e+06
3.12814e+06
2.47343e+06
2.91215e+06
2.4813e+06
2.49679e+06
3.53515e+06
4.07628e+06
4.21069e+06
4.10836e+06
3.8538e+06
3.48845e+06
3.06789e+06
2.75273e+06
3.05769e+06
5.78456e+06
4.84944e+06
1.41132e+06
1.78162e+06
2.3374e+06
2.07275e+06
747334
1.7216e+06
1.90485e+06
1.68507e+06
1.79274e+06
2.25707e+06
2.82742e+06
3.34301e+06
3.69171e+06
3.86037e+06
5.38011e+06
4.09701e+06
3.23169e+06
3.6623e+06
3.56643e+06
3.04663e+06
2.17669e+06
2.1307e+06
2.70565e+06
3.20458e+06
4.20004e+06
5.28689e+06
6.22849e+06
6.92318e+06
7.24433e+06
6.82912e+06
4.38947e+06
3.09728e+06
5.00033e+06
5.10031e+06
4.54855e+06
3.72699e+06
2.77445e+06
2.17825e+06
2.60954e+06
3.25693e+06
3.93225e+06
4.7865e+06
5.56866e+06
6.18081e+06
6.51691e+06
6.237e+06
3.04974e+06
1.61776e+06
3.13401e+06
3.10365e+06
2.66129e+06
2.1691e+06
1.73109e+06
1.37053e+06
1.42058e+06
1.90913e+06
2.44226e+06
2.76203e+06
3.02398e+06
3.23193e+06
3.33844e+06
3.14942e+06
1.48131e+06
836300
1.24903e+06
929900
724981
739729
870751
1.00237e+06
1.11267e+06
1.27835e+06
1.32694e+06
1.05665e+06
1.06608e+06
1.20609e+06
1.16589e+06
1.04444e+06
679933
1.36579e+06
2.59019e+06
2.84089e+06
2.94977e+06
2.9448e+06
2.82219e+06
2.55853e+06
2.1906e+06
1.8629e+06
1.77156e+06
1.86829e+06
1.6614e+06
1.37502e+06
1.39749e+06
1.57735e+06
1.01127e+06
1.41325e+06
3.23143e+06
3.86289e+06
4.08849e+06
4.07688e+06
3.89362e+06
3.57522e+06
3.18285e+06
2.77812e+06
2.37792e+06
1.90931e+06
1.70807e+06
1.68562e+06
2.22872e+06
2.75472e+06
1.44689e+06
2.62194e+06
4.38209e+06
4.89157e+06
4.99315e+06
4.88031e+06
4.6165e+06
4.2471e+06
3.83771e+06
3.42238e+06
2.94764e+06
2.30052e+06
1.27006e+06
1.0245e+06
1.90396e+06
2.67327e+06
1.88074e+06
3.67811e+06
4.46537e+06
4.62026e+06
4.59661e+06
4.49213e+06
4.31614e+06
4.07633e+06
3.80226e+06
3.50201e+06
3.09433e+06
2.46628e+06
1.54447e+06
757067
1.45505e+06
1.91023e+06
1.84501e+06
3.90821e+06
3.31927e+06
3.06519e+06
3.1179e+06
3.31101e+06
3.4954e+06
3.60464e+06
3.6194e+06
3.52133e+06
3.26004e+06
2.78568e+06
2.17941e+06
1.69653e+06
1.7197e+06
1.74603e+06
1.3739e+06
3.47586e+06
2.45252e+06
2.52148e+06
3.27787e+06
4.00899e+06
4.49695e+06
4.73675e+06
4.76043e+06
4.58881e+06
4.23805e+06
3.75747e+06
3.27358e+06
2.89712e+06
2.56818e+06
1.9493e+06
846879
2.78627e+06
2.45495e+06
3.21325e+06
4.49148e+06
5.49414e+06
6.06265e+06
6.25968e+06
6.17132e+06
5.85611e+06
5.36229e+06
4.77222e+06
4.21696e+06
3.77255e+06
3.3099e+06
2.5718e+06
1.13101e+06
1.90225e+06
2.00835e+06
2.79652e+06
4.27823e+06
5.387e+06
5.95001e+06
6.10232e+06
5.98957e+06
5.69832e+06
5.2806e+06
4.79877e+06
4.33318e+06
3.9103e+06
3.41812e+06
2.69132e+06
1.46936e+06
1.40805e+06
1.371e+06
1.70053e+06
3.00904e+06
3.89375e+06
4.23362e+06
4.26187e+06
4.1973e+06
4.13219e+06
4.07837e+06
4.02409e+06
3.93572e+06
3.72537e+06
3.2526e+06
2.42363e+06
1.21396e+06
1.62958e+06
1.66182e+06
1.54291e+06
2.37746e+06
2.76709e+06
2.75451e+06
2.81263e+06
3.17127e+06
3.69011e+06
4.19908e+06
4.60445e+06
4.83207e+06
4.78579e+06
4.33814e+06
3.33214e+06
1.64658e+06
2.47655e+06
2.91143e+06
2.55411e+06
2.43772e+06
2.5704e+06
2.50926e+06
2.98681e+06
3.90975e+06
4.83869e+06
5.59782e+06
6.14776e+06
6.45991e+06
6.48694e+06
6.15597e+06
5.29344e+06
3.3335e+06
3.42556e+06
4.11612e+06
3.63457e+06
2.8756e+06
2.33864e+06
2.12616e+06
2.67117e+06
3.83313e+06
4.92989e+06
5.78844e+06
6.41382e+06
6.80599e+06
6.94396e+06
6.7922e+06
6.2054e+06
4.57261e+06
3.8397e+06
4.69026e+06
4.25915e+06
3.21101e+06
2.21126e+06
1.75952e+06
1.86862e+06
2.85167e+06
3.85896e+06
4.62155e+06
5.1741e+06
5.53719e+06
5.6899e+06
5.5923e+06
5.15369e+06
4.48453e+06
3.16238e+06
4.0811e+06
3.95053e+06
3.11399e+06
2.08194e+06
1.64694e+06
1.59427e+06
2.27316e+06
3.2138e+06
3.8741e+06
4.28904e+06
4.52241e+06
4.55649e+06
4.31891e+06
3.67335e+06
3.37557e+06
1.71598e+06
3.01612e+06
3.04368e+06
2.52592e+06
1.82298e+06
1.20174e+06
1.00207e+06
1.71328e+06
2.48444e+06
3.05431e+06
3.48924e+06
3.79143e+06
3.93431e+06
3.84561e+06
3.32972e+06
1.92037e+06
1.15935e+06
1.8766e+06
2.17565e+06
2.26038e+06
2.22068e+06
2.08444e+06
1.81323e+06
1.42499e+06
1.05987e+06
1.11333e+06
937625
766299
794463
886764
913967
601574
2.06643e+06
2.28243e+06
2.50175e+06
2.64679e+06
2.75318e+06
2.81829e+06
2.79032e+06
2.3427e+06
1.18057e+06
1.181e+06
1.22546e+06
1.81799e+06
2.5388e+06
3.01555e+06
3.12781e+06
1.73136e+06
2.85858e+06
4.21979e+06
4.52927e+06
4.56124e+06
4.44072e+06
4.20007e+06
3.81297e+06
3.15221e+06
2.11285e+06
1.58125e+06
1.63469e+06
2.21608e+06
3.24523e+06
3.93538e+06
4.01372e+06
2.08264e+06
3.21974e+06
5.18083e+06
5.61219e+06
5.62873e+06
5.39172e+06
4.95251e+06
4.3241e+06
3.44582e+06
2.35987e+06
1.78609e+06
1.88509e+06
2.09104e+06
3.06617e+06
3.68405e+06
3.55386e+06
1.81389e+06
3.11874e+06
4.42423e+06
4.6817e+06
4.62157e+06
4.35419e+06
3.9293e+06
3.38684e+06
2.71894e+06
1.98863e+06
1.70867e+06
1.96999e+06
1.40981e+06
1.93519e+06
2.53577e+06
2.15119e+06
1.21828e+06
2.89528e+06
2.47855e+06
2.11082e+06
1.82749e+06
1.55943e+06
1.34882e+06
1.30672e+06
1.44792e+06
1.7122e+06
2.0921e+06
2.38027e+06
2.01836e+06
807045
1.28841e+06
891655
906884
2.8656e+06
1.88229e+06
1.53064e+06
1.85838e+06
2.28687e+06
2.64516e+06
2.91975e+06
3.10996e+06
3.22013e+06
3.24981e+06
3.10585e+06
2.58655e+06
1.64819e+06
1.15777e+06
768828
742398
2.6973e+06
2.57484e+06
2.88078e+06
3.47963e+06
3.99849e+06
4.33551e+06
4.48725e+06
4.46782e+06
4.30151e+06
4.0135e+06
3.56855e+06
2.83164e+06
1.83487e+06
1.36263e+06
1.26121e+06
411097
2.23612e+06
2.74348e+06
3.11718e+06
3.4992e+06
3.78156e+06
3.88816e+06
3.81965e+06
3.61186e+06
3.31762e+06
2.99725e+06
2.66878e+06
2.24419e+06
1.69997e+06
1.55898e+06
1.80029e+06
966437
1.60915e+06
2.32926e+06
2.69534e+06
2.65777e+06
2.54605e+06
2.32635e+06
1.92562e+06
1.36432e+06
734888
437266
923919
1.44381e+06
1.82036e+06
2.14386e+06
2.35926e+06
1.6784e+06
1.42902e+06
1.17657e+06
1.87679e+06
1.71666e+06
1.71113e+06
2.04624e+06
2.32175e+06
2.49788e+06
2.65878e+06
2.83555e+06
3.00516e+06
3.12512e+06
3.15121e+06
3.05897e+06
2.81176e+06
1.72582e+06
1.49112e+06
752793
1.1676e+06
1.27583e+06
1.58924e+06
2.55373e+06
3.31905e+06
3.80173e+06
4.10381e+06
4.26328e+06
4.27418e+06
4.1297e+06
3.82863e+06
3.36829e+06
2.77471e+06
1.64607e+06
1.6623e+06
935650
874588
1.2626e+06
1.48088e+06
2.47504e+06
3.11495e+06
3.37232e+06
3.42541e+06
3.35215e+06
3.15904e+06
2.8545e+06
2.45773e+06
1.98373e+06
1.56415e+06
1.62953e+06
1.53204e+06
1.02927e+06
1.16935e+06
1.44806e+06
638191
1.74622e+06
2.26117e+06
2.08672e+06
1.7093e+06
1.28457e+06
855676
595767
766475
1.10525e+06
1.40268e+06
1.82022e+06
1.15135e+06
1.59827e+06
1.94389e+06
2.03146e+06
1.48477e+06
656306
1.38238e+06
1.2502e+06
1.49332e+06
1.99612e+06
2.52043e+06
3.00296e+06
3.38128e+06
3.56171e+06
3.36261e+06
2.06892e+06
662049
1.38779e+06
1.57614e+06
1.47005e+06
1.15587e+06
708838
785896
1.40812e+06
1.91283e+06
2.30904e+06
2.63268e+06
2.86151e+06
2.9632e+06
2.88253e+06
2.49679e+06
1.2511e+06
1.20764e+06
2.51894e+06
2.87589e+06
2.94861e+06
2.85337e+06
2.59431e+06
1.93826e+06
1.25875e+06
1.00793e+06
1.06073e+06
1.25743e+06
1.47537e+06
1.72764e+06
1.97309e+06
2.00441e+06
999727
2.41934e+06
4.49688e+06
4.67528e+06
4.36856e+06
3.79034e+06
2.99921e+06
2.43678e+06
2.12071e+06
1.41923e+06
1.81662e+06
2.46031e+06
2.94925e+06
3.30742e+06
3.5323e+06
3.39259e+06
1.78155e+06
2.89302e+06
4.4464e+06
4.65093e+06
4.47265e+06
4.08831e+06
3.51424e+06
3.01059e+06
2.79069e+06
1.84781e+06
1.44636e+06
1.9387e+06
2.28063e+06
2.48458e+06
2.56664e+06
2.32446e+06
1.66611e+06
3.33059e+06
3.36062e+06
3.58701e+06
3.69278e+06
3.69123e+06
3.54373e+06
3.35013e+06
3.24799e+06
2.81101e+06
1.87482e+06
1.81845e+06
1.68557e+06
1.62424e+06
1.59593e+06
1.22378e+06
1.83276e+06
4.00382e+06
2.97773e+06
3.17292e+06
3.47144e+06
3.702e+06
3.81875e+06
3.86058e+06
3.83998e+06
3.55018e+06
2.78292e+06
2.00869e+06
1.69419e+06
1.68789e+06
2.20948e+06
2.42541e+06
2.4625e+06
4.76924e+06
4.61349e+06
4.90829e+06
5.18973e+06
5.35441e+06
5.3711e+06
5.27246e+06
5.055e+06
4.56974e+06
3.6817e+06
2.60325e+06
1.93046e+06
1.8739e+06
2.55175e+06
3.15992e+06
2.77014e+06
4.94872e+06
5.76617e+06
6.28582e+06
6.6731e+06
6.88641e+06
6.88605e+06
6.69335e+06
6.31112e+06
5.64109e+06
4.57154e+06
3.28154e+06
2.39606e+06
2.11352e+06
2.26086e+06
2.6178e+06
2.25226e+06
4.18864e+06
5.03153e+06
5.64846e+06
6.15428e+06
6.47868e+06
6.56699e+06
6.43683e+06
6.10676e+06
5.53244e+06
4.65886e+06
3.63982e+06
2.95917e+06
2.7809e+06
2.32632e+06
1.85342e+06
1.36703e+06
3.04994e+06
3.33981e+06
3.98983e+06
4.61431e+06
5.03099e+06
5.1975e+06
5.1565e+06
4.95286e+06
4.5963e+06
4.11098e+06
3.65099e+06
3.43904e+06
3.34027e+06
2.89608e+06
1.85476e+06
887191
2.13588e+06
2.00435e+06
2.91061e+06
3.76469e+06
4.3165e+06
4.62323e+06
4.77677e+06
4.82523e+06
4.78789e+06
4.70628e+06
4.65185e+06
4.60459e+06
4.30763e+06
3.4708e+06
2.24567e+06
1.26851e+06
1.71238e+06
1.66289e+06
2.77639e+06
3.72564e+06
4.32037e+06
4.72362e+06
5.07048e+06
5.37189e+06
5.5973e+06
5.74447e+06
5.82546e+06
5.77581e+06
5.37577e+06
4.35824e+06
2.79788e+06
1.57067e+06
1.75482e+06
1.26166e+06
2.45824e+06
3.31547e+06
3.73596e+06
4.02096e+06
4.35689e+06
4.72803e+06
5.05463e+06
5.30111e+06
5.45624e+06
5.45926e+06
5.14994e+06
4.31736e+06
2.90333e+06
1.55956e+06
1.92511e+06
1.02396e+06
1.51111e+06
2.3471e+06
2.51562e+06
2.5958e+06
2.84104e+06
3.15675e+06
3.42505e+06
3.62112e+06
3.74101e+06
3.74587e+06
3.54565e+06
3.02638e+06
2.16614e+06
1.8403e+06
2.16242e+06
1.37885e+06
1.39309e+06
1.31828e+06
1.27146e+06
1.37875e+06
1.94188e+06
2.46495e+06
2.81213e+06
3.04339e+06
3.17158e+06
3.18492e+06
3.09096e+06
2.93107e+06
2.72915e+06
2.48807e+06
2.04824e+06
2.00349e+06
1.66099e+06
1.09532e+06
736599
1.03618e+06
1.71154e+06
2.28782e+06
2.74033e+06
3.11279e+06
3.39288e+06
3.56498e+06
3.64463e+06
3.65571e+06
3.49276e+06
2.45061e+06
1.19406e+06
1.83484e+06
1.4345e+06
810863
415788
611008
951537
1.12676e+06
1.40845e+06
1.7072e+06
1.96015e+06
2.14731e+06
2.25923e+06
2.26744e+06
2.04423e+06
1.20372e+06
818154
1.4197e+06
1.11085e+06
846870
968957
1.22195e+06
1.63627e+06
1.90635e+06
1.95435e+06
1.83006e+06
1.6571e+06
1.49769e+06
1.35725e+06
1.25417e+06
1.15451e+06
615400
1.04421e+06
1.86159e+06
1.72123e+06
1.77146e+06
1.92564e+06
1.63995e+06
1.25805e+06
2.30635e+06
2.51838e+06
2.27394e+06
1.97357e+06
1.77975e+06
1.76569e+06
1.91125e+06
1.91143e+06
1.32604e+06
1.33223e+06
2.41599e+06
2.76474e+06
3.06645e+06
3.28813e+06
3.10007e+06
2.25959e+06
1.72236e+06
1.88141e+06
1.66477e+06
1.70915e+06
2.28358e+06
3.05922e+06
3.77468e+06
4.01584e+06
2.41369e+06
2.68967e+06
5.17942e+06
5.68051e+06
5.8242e+06
5.76469e+06
5.28958e+06
4.17505e+06
2.755e+06
2.08523e+06
1.94809e+06
2.03353e+06
2.9419e+06
4.21261e+06
5.33157e+06
5.72482e+06
2.98598e+06
3.72244e+06
7.66642e+06
8.45827e+06
8.57272e+06
8.33669e+06
7.65284e+06
6.33691e+06
4.56556e+06
3.22999e+06
2.84014e+06
2.5823e+06
3.06204e+06
4.45151e+06
5.6847e+06
6.00153e+06
2.88033e+06
4.43498e+06
8.14896e+06
9.07762e+06
9.16968e+06
8.83563e+06
8.06706e+06
6.75318e+06
4.99626e+06
3.525e+06
3.26568e+06
3.08675e+06
2.71153e+06
3.51391e+06
4.29351e+06
4.14038e+06
2.42105e+06
4.94275e+06
5.48028e+06
5.86103e+06
5.71384e+06
5.29889e+06
4.65152e+06
3.74359e+06
2.75463e+06
2.41586e+06
2.94829e+06
3.08407e+06
1.85456e+06
2.05359e+06
2.54265e+06
1.83882e+06
2.52361e+06
5.5905e+06
3.46538e+06
2.92112e+06
2.84441e+06
3.06978e+06
3.43613e+06
3.88183e+06
4.42269e+06
4.96671e+06
5.19381e+06
4.6953e+06
3.14958e+06
1.80235e+06
2.2117e+06
1.41484e+06
2.61816e+06
5.73755e+06
5.44533e+06
6.25322e+06
7.31965e+06
8.29896e+06
9.02433e+06
9.46088e+06
9.62033e+06
9.45288e+06
8.7777e+06
7.3709e+06
5.29158e+06
3.51627e+06
3.54414e+06
2.78498e+06
2.065e+06
4.90402e+06
6.13193e+06
7.81257e+06
9.29632e+06
1.04413e+07
1.11696e+07
1.14702e+07
1.13626e+07
1.08323e+07
9.788e+06
8.11487e+06
5.91495e+06
3.99862e+06
3.79153e+06
3.43044e+06
1.41333e+06
3.53547e+06
4.69773e+06
6.44477e+06
7.70583e+06
8.47294e+06
8.81114e+06
8.77496e+06
8.41311e+06
7.74368e+06
6.73812e+06
5.37164e+06
3.82213e+06
2.88167e+06
3.20549e+06
3.27187e+06
1.54171e+06
2.36198e+06
2.44671e+06
3.75871e+06
4.53679e+06
4.72816e+06
4.58399e+06
4.29737e+06
4.00171e+06
3.7713e+06
3.65781e+06
3.75304e+06
4.14639e+06
4.70845e+06
4.95953e+06
4.25897e+06
2.27535e+06
1.71229e+06
1.07712e+06
1.97881e+06
2.65215e+06
3.29867e+06
4.14948e+06
5.1245e+06
6.12466e+06
7.02826e+06
7.76022e+06
8.30549e+06
8.64925e+06
8.68383e+06
8.11924e+06
6.45057e+06
2.76375e+06
1.79565e+06
1.80413e+06
2.21809e+06
2.79931e+06
3.6611e+06
5.06341e+06
6.47419e+06
7.73575e+06
8.76078e+06
9.49031e+06
9.90869e+06
1.00026e+07
9.70544e+06
8.83378e+06
6.97137e+06
2.84394e+06
1.87187e+06
2.14896e+06
2.01717e+06
2.56608e+06
3.04574e+06
3.88856e+06
4.81923e+06
5.62058e+06
6.2179e+06
6.5949e+06
6.75298e+06
6.68834e+06
6.36973e+06
5.70542e+06
4.46032e+06
2.42223e+06
1.26018e+06
2.24243e+06
2.03019e+06
1.65434e+06
1.65858e+06
1.54377e+06
1.5852e+06
1.85226e+06
2.17735e+06
2.52494e+06
2.85958e+06
3.13953e+06
3.32441e+06
3.34857e+06
3.01426e+06
1.73846e+06
2.44307e+06
3.87925e+06
3.66698e+06
2.74082e+06
1.57645e+06
1.43958e+06
2.5426e+06
3.65508e+06
4.6072e+06
5.30076e+06
5.7497e+06
5.98181e+06
5.98801e+06
5.70736e+06
4.89433e+06
2.45541e+06
3.834e+06
4.42768e+06
4.31139e+06
3.47731e+06
2.2914e+06
1.3692e+06
1.97397e+06
3.20646e+06
4.97874e+06
6.54845e+06
7.7391e+06
8.54734e+06
8.96064e+06
8.90846e+06
8.00905e+06
4.19139e+06
4.48576e+06
7.28392e+06
6.98348e+06
5.70574e+06
3.93327e+06
2.37183e+06
2.71719e+06
3.29207e+06
4.74862e+06
6.77864e+06
8.46199e+06
9.60204e+06
1.01982e+07
1.01993e+07
9.15705e+06
4.15853e+06
3.80322e+06
7.75423e+06
7.43532e+06
5.99813e+06
4.03973e+06
2.28897e+06
2.52543e+06
3.03398e+06
3.39647e+06
5.0867e+06
6.63289e+06
7.46682e+06
7.65569e+06
7.28648e+06
6.13562e+06
2.91839e+06
2.61949e+06
4.2099e+06
3.83156e+06
2.79918e+06
1.90612e+06
2.25886e+06
3.18189e+06
3.24188e+06
1.77146e+06
2.41973e+06
3.68419e+06
3.92922e+06
3.53979e+06
2.95202e+06
2.39624e+06
3.01454e+06
3.32656e+06
4.127e+06
4.88678e+06
5.58824e+06
6.2989e+06
6.86122e+06
6.88866e+06
5.91407e+06
3.74611e+06
2.04775e+06
2.79964e+06
2.59404e+06
2.9696e+06
4.34855e+06
5.37793e+06
3.88527e+06
4.58048e+06
9.32229e+06
1.08503e+07
1.15669e+07
1.18526e+07
1.16849e+07
1.08557e+07
9.08629e+06
6.39493e+06
3.95199e+06
3.93384e+06
3.64843e+06
4.057e+06
6.08802e+06
7.3057e+06
3.86776e+06
5.17247e+06
1.14609e+07
1.33243e+07
1.39153e+07
1.3843e+07
1.31974e+07
1.18944e+07
9.79585e+06
6.95307e+06
4.22027e+06
3.88383e+06
4.13984e+06
3.51442e+06
5.03222e+06
5.89442e+06
2.75802e+06
5.11598e+06
8.4884e+06
9.64425e+06
9.69763e+06
9.2019e+06
8.30643e+06
7.00469e+06
5.24505e+06
3.11756e+06
1.6915e+06
2.9035e+06
3.69449e+06
2.07682e+06
2.7548e+06
3.44141e+06
1.72002e+06
5.33954e+06
3.89184e+06
3.24708e+06
2.26328e+06
1.20282e+06
816687
1.75376e+06
3.00328e+06
4.33146e+06
5.54256e+06
6.241e+06
5.8849e+06
3.97673e+06
2.27039e+06
2.76842e+06
1.0999e+06
5.35513e+06
3.59486e+06
4.43185e+06
6.16982e+06
7.91227e+06
9.39975e+06
1.05594e+07
1.13791e+07
1.18397e+07
1.18434e+07
1.11597e+07
9.49417e+06
6.83265e+06
4.36002e+06
4.14459e+06
1.64122e+06
4.58284e+06
4.9329e+06
7.15979e+06
9.59813e+06
1.16269e+07
1.31539e+07
1.41684e+07
1.46632e+07
1.46278e+07
1.40138e+07
1.27028e+07
1.05509e+07
7.60877e+06
4.71197e+06
4.02577e+06
2.94368e+06
3.20848e+06
4.44352e+06
6.35878e+06
8.41777e+06
9.85792e+06
1.07423e+07
1.11775e+07
1.11918e+07
1.07945e+07
9.9724e+06
8.67293e+06
6.83692e+06
4.53497e+06
2.46457e+06
2.78488e+06
4.11183e+06
1.57334e+06
2.87227e+06
3.70925e+06
4.82199e+06
5.09888e+06
4.87268e+06
4.36213e+06
3.66312e+06
2.83625e+06
1.92005e+06
980352
770138
1.8324e+06
2.98855e+06
3.75213e+06
4.32898e+06
608502
1.72265e+06
1.21435e+06
1.89772e+06
1.64539e+06
1.95989e+06
2.72477e+06
3.6368e+06
4.53414e+06
5.32987e+06
5.99045e+06
6.49946e+06
6.81276e+06
6.79078e+06
6.0832e+06
3.82167e+06
589356
906393
1.0067e+06
1.68002e+06
2.65078e+06
3.58277e+06
4.42171e+06
5.14599e+06
5.70233e+06
6.07137e+06
6.25279e+06
6.24956e+06
6.04557e+06
5.56036e+06
4.55027e+06
2.15013e+06
2.08426e+06
3.77536e+06
3.87096e+06
3.27147e+06
2.7516e+06
3.1902e+06
4.01179e+06
4.73453e+06
5.39112e+06
5.94549e+06
6.34776e+06
6.57421e+06
6.59427e+06
6.31388e+06
5.41098e+06
2.87002e+06
4.04686e+06
5.09479e+06
4.3486e+06
3.89519e+06
3.61452e+06
3.44944e+06
4.69721e+06
5.70637e+06
6.25522e+06
6.45937e+06
6.41134e+06
6.1774e+06
5.78732e+06
5.21805e+06
4.39967e+06
4.89578e+06
5.30899e+06
2.84401e+06
2.14735e+06
2.50619e+06
3.11007e+06
1.84152e+06
2.9889e+06
4.06889e+06
3.85509e+06
3.1569e+06
2.58698e+06
2.51613e+06
2.88291e+06
3.34383e+06
3.67167e+06
6.11169e+06
5.91765e+06
4.00364e+06
4.73739e+06
5.1571e+06
4.78407e+06
2.97657e+06
1.70957e+06
3.27109e+06
2.65683e+06
2.9846e+06
5.06915e+06
7.24095e+06
8.95544e+06
9.9742e+06
9.71022e+06
6.52176e+06
6.01021e+06
9.77035e+06
1.03126e+07
9.59619e+06
7.92536e+06
5.34202e+06
3.12637e+06
4.17293e+06
4.00719e+06
4.39543e+06
7.17153e+06
9.97136e+06
1.19901e+07
1.29893e+07
1.22594e+07
5.78719e+06
5.35428e+06
1.14967e+07
1.1874e+07
1.06353e+07
8.46063e+06
5.57093e+06
3.00855e+06
3.74176e+06
4.39554e+06
3.72496e+06
5.90175e+06
8.437e+06
9.95808e+06
1.03463e+07
9.253e+06
4.39139e+06
4.39395e+06
7.28624e+06
7.23079e+06
5.98605e+06
4.13885e+06
2.08387e+06
1.95975e+06
3.75399e+06
4.33133e+06
2.29539e+06
2.93875e+06
4.91397e+06
5.35999e+06
4.66784e+06
3.21941e+06
4.14346e+06
4.6079e+06
2.53757e+06
3.17524e+06
4.14723e+06
5.25188e+06
6.38821e+06
7.36333e+06
7.76123e+06
6.97426e+06
4.51389e+06
2.34057e+06
3.53827e+06
2.96419e+06
2.55159e+06
3.6155e+06
4.74536e+06
5.36924e+06
8.98924e+06
1.09876e+07
1.22672e+07
1.30816e+07
1.34472e+07
1.32786e+07
1.23633e+07
1.04127e+07
7.36694e+06
4.46018e+06
4.64483e+06
4.1608e+06
4.20146e+06
6.00306e+06
4.51054e+06
5.3954e+06
1.23217e+07
1.49386e+07
1.61781e+07
1.66315e+07
1.64275e+07
1.55562e+07
1.39263e+07
1.14319e+07
8.13312e+06
4.88309e+06
4.36925e+06
4.63533e+06
3.61992e+06
5.00427e+06
3.12367e+06
4.57965e+06
9.97979e+06
1.19386e+07
1.25201e+07
1.23799e+07
1.17196e+07
1.05848e+07
8.95878e+06
6.83279e+06
4.33904e+06
2.39038e+06
3.11964e+06
3.93548e+06
1.99076e+06
2.66376e+06
1.71666e+06
4.12023e+06
5.41994e+06
5.6846e+06
5.02139e+06
3.94795e+06
2.69861e+06
1.45043e+06
1.06287e+06
2.27082e+06
3.81041e+06
5.24606e+06
6.1406e+06
5.88638e+06
3.87271e+06
2.04594e+06
1.72544e+06
3.70785e+06
2.52278e+06
1.79998e+06
3.12943e+06
5.04131e+06
6.87673e+06
8.50819e+06
9.86453e+06
1.09011e+07
1.15685e+07
1.17495e+07
1.12218e+07
9.68834e+06
7.02442e+06
4.23689e+06
3.1369e+06
2.69035e+06
3.668e+06
4.25261e+06
6.48972e+06
8.84788e+06
1.08913e+07
1.25484e+07
1.37503e+07
1.44521e+07
1.46225e+07
1.42037e+07
1.30996e+07
1.1195e+07
8.47167e+06
5.43149e+06
4.15743e+06
1.56029e+06
3.6508e+06
4.10765e+06
5.40013e+06
6.99615e+06
8.4244e+06
9.57172e+06
1.03843e+07
1.08351e+07
1.09087e+07
1.05886e+07
9.85115e+06
8.67012e+06
7.04392e+06
5.06292e+06
4.18499e+06
428908
1.18996e+06
1.8987e+06
2.06825e+06
2.49914e+06
3.35311e+06
4.22417e+06
5.01075e+06
5.67065e+06
6.16913e+06
6.49009e+06
6.62792e+06
6.56106e+06
6.19846e+06
5.2283e+06
2.90974e+06
1.29764e+06
2.00985e+06
1.80886e+06
1.79618e+06
2.8198e+06
4.45992e+06
5.7629e+06
6.54458e+06
6.94788e+06
7.09555e+06
7.03782e+06
6.7863e+06
6.33203e+06
5.61975e+06
4.41676e+06
1.93199e+06
2.27072e+06
4.40853e+06
4.14842e+06
3.68594e+06
3.99707e+06
4.17707e+06
5.72812e+06
7.59963e+06
9.2036e+06
1.04159e+07
1.12142e+07
1.15925e+07
1.152e+07
1.08751e+07
9.16389e+06
3.9639e+06
3.79538e+06
7.78748e+06
6.90333e+06
5.28454e+06
5.44648e+06
5.15739e+06
6.20425e+06
9.04328e+06
1.16575e+07
1.35297e+07
1.46684e+07
1.5157e+07
1.50312e+07
1.42022e+07
1.21032e+07
5.67656e+06
5.42677e+06
8.84809e+06
7.502e+06
5.21871e+06
4.87887e+06
5.19757e+06
5.08755e+06
7.67124e+06
1.02209e+07
1.16861e+07
1.22173e+07
1.21001e+07
1.15181e+07
1.05171e+07
8.87757e+06
6.4281e+06
6.25465e+06
5.3851e+06
4.01571e+06
2.55084e+06
2.98572e+06
3.74963e+06
2.49391e+06
4.43895e+06
6.51088e+06
6.74626e+06
5.82213e+06
4.39686e+06
2.89192e+06
1.65565e+06
1.96126e+06
6.5307e+06
6.25379e+06
2.93872e+06
3.88884e+06
4.96051e+06
5.52321e+06
5.0543e+06
2.94964e+06
2.20513e+06
4.29916e+06
3.37551e+06
1.80963e+06
3.48131e+06
5.95274e+06
7.78908e+06
8.30197e+06
6.43581e+06
6.09688e+06
1.0134e+07
1.12861e+07
1.12372e+07
1.03461e+07
8.50297e+06
5.71834e+06
3.60502e+06
4.89873e+06
4.38378e+06
4.04165e+06
7.01282e+06
1.01551e+07
1.22019e+07
1.22152e+07
5.90481e+06
5.91042e+06
1.30521e+07
1.4103e+07
1.3429e+07
1.18128e+07
9.38522e+06
6.28555e+06
3.66244e+06
4.42801e+06
4.98497e+06
3.90641e+06
6.26367e+06
9.09908e+06
1.06386e+07
1.01832e+07
5.0103e+06
5.59611e+06
9.37659e+06
9.77452e+06
8.81637e+06
7.17704e+06
5.04621e+06
2.66076e+06
1.84065e+06
3.72452e+06
4.53417e+06
2.46617e+06
3.26696e+06
5.36103e+06
5.6641e+06
4.4683e+06
4.73135e+06
5.63238e+06
2.10146e+06
1.30803e+06
1.72099e+06
2.86936e+06
4.21535e+06
5.57638e+06
6.7456e+06
7.3731e+06
6.85971e+06
4.56216e+06
2.42661e+06
3.60742e+06
2.48954e+06
1.17228e+06
4.9682e+06
5.79437e+06
6.95765e+06
8.97365e+06
1.06141e+07
1.18605e+07
1.27102e+07
1.31189e+07
1.2984e+07
1.21478e+07
1.03637e+07
7.53187e+06
4.77155e+06
4.81955e+06
4.04964e+06
3.57299e+06
4.53165e+06
5.19705e+06
1.0611e+07
1.36099e+07
1.54599e+07
1.65605e+07
1.7014e+07
1.68186e+07
1.59409e+07
1.43295e+07
1.19132e+07
8.75792e+06
5.58373e+06
4.65543e+06
4.61482e+06
3.43773e+06
3.32213e+06
3.63616e+06
9.07004e+06
1.1742e+07
1.30838e+07
1.36791e+07
1.37035e+07
1.31909e+07
1.21607e+07
1.06134e+07
8.55229e+06
6.09896e+06
3.75016e+06
3.01664e+06
3.48987e+06
2.03986e+06
1.95881e+06
2.20455e+06
5.47477e+06
6.96815e+06
7.32198e+06
7.13632e+06
6.63311e+06
5.89082e+06
4.98426e+06
3.97617e+06
2.98855e+06
2.37706e+06
2.59886e+06
3.30532e+06
3.54775e+06
2.37812e+06
1.49633e+06
1.1184e+06
2.6315e+06
3.13884e+06
3.11031e+06
3.01753e+06
3.10082e+06
3.42319e+06
3.90651e+06
4.44308e+06
4.95513e+06
5.36899e+06
5.60759e+06
5.56677e+06
5.08677e+06
3.91268e+06
2.01399e+06
672197
2.01241e+06
3.13693e+06
3.69189e+06
4.05628e+06
4.38833e+06
4.6765e+06
4.88729e+06
5.00775e+06
5.02952e+06
4.94224e+06
4.73166e+06
4.37803e+06
3.88104e+06
3.16118e+06
1.57745e+06
1.16778e+06
1.54864e+06
1.18477e+06
1.36184e+06
2.09105e+06
3.2729e+06
4.39855e+06
5.20258e+06
5.6769e+06
5.88853e+06
5.89404e+06
5.72142e+06
5.38161e+06
4.85622e+06
3.97521e+06
2.16646e+06
2.33503e+06
1.98916e+06
2.15383e+06
1.84413e+06
3.62223e+06
5.18043e+06
6.23535e+06
6.70681e+06
6.70753e+06
6.39741e+06
5.87734e+06
5.20108e+06
4.42376e+06
3.64356e+06
3.09252e+06
3.82794e+06
2.87732e+06
1.10813e+06
2.11178e+06
589927
2.74709e+06
4.00076e+06
3.85818e+06
3.02539e+06
1.90325e+06
882360
926597
1.79602e+06
2.61455e+06
3.15923e+06
3.2222e+06
4.31569e+06
2.81777e+06
4.19294e+06
4.74648e+06
3.50205e+06
2.90738e+06
3.93742e+06
2.88178e+06
2.71866e+06
4.7606e+06
6.95476e+06
8.69486e+06
9.91209e+06
1.05957e+07
1.06058e+07
9.31251e+06
4.69369e+06
3.69706e+06
8.20853e+06
8.11675e+06
6.35903e+06
4.6684e+06
5.06114e+06
4.52137e+06
4.95233e+06
7.91659e+06
1.08183e+07
1.28874e+07
1.41074e+07
1.45885e+07
1.43016e+07
1.25712e+07
5.72131e+06
5.31875e+06
9.9379e+06
9.34761e+06
7.2484e+06
5.02436e+06
4.59305e+06
4.67764e+06
4.43091e+06
7.13691e+06
9.88181e+06
1.15007e+07
1.20969e+07
1.20088e+07
1.14176e+07
9.99911e+06
6.26956e+06
5.98185e+06
7.04838e+06
6.2971e+06
4.78228e+06
3.42565e+06
3.1656e+06
3.29996e+06
2.11276e+06
4.32706e+06
6.45511e+06
6.83104e+06
6.05665e+06
4.87011e+06
3.79486e+06
3.28939e+06
5.92725e+06
5.4444e+06
2.50036e+06
3.31339e+06
4.25692e+06
4.95654e+06
5.21459e+06
4.6013e+06
2.82286e+06
2.82359e+06
4.60689e+06
3.76507e+06
2.16078e+06
3.11598e+06
5.09471e+06
6.08858e+06
5.3944e+06
5.01193e+06
8.66281e+06
1.01193e+07
1.05092e+07
1.02622e+07
9.39232e+06
7.74359e+06
5.41386e+06
3.9408e+06
5.0142e+06
4.44676e+06
3.81484e+06
6.23914e+06
8.87296e+06
9.75026e+06
4.91983e+06
5.33687e+06
1.20053e+07
1.34349e+07
1.33335e+07
1.24507e+07
1.09056e+07
8.70802e+06
6.02909e+06
3.79242e+06
4.27937e+06
4.64971e+06
3.47616e+06
5.43162e+06
7.86657e+06
8.50909e+06
4.43622e+06
5.71964e+06
9.58378e+06
1.03245e+07
9.84895e+06
8.78123e+06
7.22791e+06
5.28131e+06
3.15867e+06
1.90671e+06
3.12865e+06
3.89252e+06
2.05612e+06
2.54024e+06
4.28222e+06
4.17282e+06
4.14089e+06
5.74393e+06
3.50228e+06