/*--------------------------------*- C++ -*----------------------------------*\
| =========                 |                                                 |
| \\      /  F ield         | OpenFOAM: The Open Source CFD Toolbox           |
|  \\    /   O peration     | Version:  v2012                                 |
|   \\  /    A nd           | Website:  www.openfoam.com                      |
|    \\/     M anipulation  |                                                 |
\*---------------------------------------------------------------------------*/
FoamFile
{
    version     2.0;
    format      ascii;
    class       volSymmTensorField;
    location    "1";
    object      epsilon;
}
// * * * * * * * * * * * * * * * * * * * * * * * * * * * * * * * * * * * * * //

dimensions      [0 0 0 0 0 0 0];


internalField   nonuniform List<symmTensor> 
4096
(
(1.14429e+06 -584352 687393 24416.8 -127458 230499)
(2.74577e+06 -1.38595e+06 504128 26124.6 -264177 90065.4)
(3.44118e+06 -1.72254e+06 476547 3904.91 -357682 73746.3)
(3.80175e+06 -1.90927e+06 488732 16785.8 -433755 66497.2)
(3.95571e+06 -2.00154e+06 503941 47362.9 -497224 54647.5)
(3.93637e+06 -2.01263e+06 507381 88887.8 -544529 34808.5)
(3.75642e+06 -1.949e+06 486490 141586 -565670 1453.45)
(3.42291e+06 -1.80448e+06 423957 186049 -533762 -51013.5)
(2.92892e+06 -1.53304e+06 299334 137168 -412082 -113260)
(2.22064e+06 -1.09171e+06 83820.7 -37221.8 -238021 -188441)
(1.26076e+06 -588766 -258075 -83223.4 -44663.6 -373083)
(866907 -404090 -109098 -58727.1 202664 -17261.4)
(1.49196e+06 -661640 91676.5 -168677 182257 88209.8)
(2.44972e+06 -1.07416e+06 162522 -301390 108781 51371.7)
(3.04655e+06 -1.33352e+06 -3703.15 -379519 69883.2 -20787.8)
(1.58173e+06 -692119 -827138 -197489 -62470.7 72547.6)
(1.47157e+06 -1.77906e+06 1.96146e+06 -153194 -235294 623782)
(3.38981e+06 -4.22617e+06 866481 -376748 -701835 226466)
(4.01223e+06 -5.20766e+06 542907 -471458 -919513 162882)
(4.22728e+06 -5.65404e+06 367077 -489122 -1.08354e+06 134139)
(4.2045e+06 -5.78398e+06 221833 -453235 -1.21212e+06 100498)
(3.99334e+06 -5.65706e+06 82876.4 -374185 -1.29901e+06 52643.7)
(3.61927e+06 -5.29737e+06 -52813.6 -254186 -1.32575e+06 -19476.3)
(3.10785e+06 -4.7262e+06 -180051 -129166 -1.24752e+06 -121709)
(2.49191e+06 -3.96457e+06 -295065 -146271 -1.01134e+06 -223785)
(1.81165e+06 -2.96897e+06 -405071 -389431 -689950 -319797)
(1.14576e+06 -1.69342e+06 -380423 -446886 -400022 -544970)
(508547 -1.09364e+06 328779 -172541 -57465.6 -187033)
(346681 -1.77397e+06 801353 -120017 105084 130646)
(748406 -2.93409e+06 813096 -382439 19665.5 86425.4)
(1.02326e+06 -3.61875e+06 323022 -637898 -14594.4 -71104.2)
(528283 -1.8586e+06 -1.75852e+06 -369514 -199561 -29607.3)
(534758 -2.86023e+06 2.8823e+06 -401239 -191726 784692)
(1.27906e+06 -6.72777e+06 1.02168e+06 -900419 -887035 302627)
(1.54487e+06 -8.16691e+06 467024 -1.0686e+06 -1.1383e+06 172205)
(1.58061e+06 -8.73597e+06 160692 -1.17853e+06 -1.29475e+06 110138)
(1.49252e+06 -8.79463e+06 -83900.7 -1.22488e+06 -1.39578e+06 58886.8)
(1.32436e+06 -8.45234e+06 -303359 -1.20526e+06 -1.44257e+06 1772.56)
(1.0985e+06 -7.75966e+06 -500823 -1.12209e+06 -1.42361e+06 -70311)
(830740 -6.76074e+06 -668197 -1.00121e+06 -1.3137e+06 -156602)
(543294 -5.50711e+06 -805259 -937610 -1.09255e+06 -221334)
(284156 -4.01484e+06 -929343 -1.02346e+06 -819187 -240302)
(91152.7 -2.29648e+06 -953760 -1.03854e+06 -638467 -277003)
(-367529 -1.02246e+06 -338049 -566093 -547482 -236634)
(-856159 -1.36561e+06 712248 7429.96 -406743 185751)
(-916091 -2.8437e+06 947778 45153.5 -404914 115795)
(-867329 -3.75799e+06 366688 -273078 -378882 -117107)
(-433689 -1.9508e+06 -1.78903e+06 -228785 -320680 -412574)
(-656581 -2.87899e+06 2.77184e+06 -333930 -173956 681841)
(-1.52186e+06 -6.7845e+06 896267 -733507 -803429 308825)
(-1.9018e+06 -8.20143e+06 241423 -878375 -1.01553e+06 128957)
(-2.22286e+06 -8.65572e+06 -118139 -1.03021e+06 -1.10326e+06 39898.8)
(-2.48505e+06 -8.55742e+06 -383245 -1.15414e+06 -1.12473e+06 -18265.7)
(-2.66127e+06 -8.05035e+06 -602744 -1.23055e+06 -1.0937e+06 -70019.3)
(-2.73541e+06 -7.20525e+06 -786741 -1.25508e+06 -1.0089e+06 -125228)
(-2.70144e+06 -6.07687e+06 -932394 -1.23983e+06 -861927 -182843)
(-2.55552e+06 -4.72488e+06 -1.03919e+06 -1.23132e+06 -649820 -220526)
(-2.27942e+06 -3.2024e+06 -1.11936e+06 -1.29118e+06 -409514 -212549)
(-1.86685e+06 -1.56823e+06 -1.12539e+06 -1.34181e+06 -237274 -188703)
(-1.53403e+06 -171343 -799773 -1.04369e+06 -228283 -121251)
(-1.7912e+06 28177.9 30145.5 -312575 -344468 212597)
(-1.99442e+06 -1.23626e+06 633821 155274 -478785 460326)
(-1.74218e+06 -2.36614e+06 199315 40091.5 -611500 -16152.6)
(-819290 -1.29672e+06 -1.23864e+06 -53435.6 -365170 -676905)
(-1.2186e+06 -1.9414e+06 1.81891e+06 -107260 -170984 449228)
(-2.98011e+06 -4.54089e+06 463707 -195576 -563386 209375)
(-3.91857e+06 -5.32297e+06 -135997 -198730 -663676 32244.4)
(-4.61641e+06 -5.30443e+06 -450867 -263450 -642916 -53238.5)
(-5.12034e+06 -4.86156e+06 -644598 -351608 -565166 -99348.6)
(-5.41496e+06 -4.15472e+06 -775206 -437936 -451464 -132799)
(-5.48972e+06 -3.26622e+06 -862926 -512906 -306685 -163372)
(-5.3443e+06 -2.25229e+06 -912652 -578917 -130485 -191374)
(-4.98522e+06 -1.1661e+06 -925489 -654086 73969 -206030)
(-4.41828e+06 -63846.6 -906096 -767936 286076 -191006)
(-3.66246e+06 984466 -833920 -901966 452818 -149477)
(-2.85089e+06 1.79692e+06 -594022 -873548 495095 -90526.4)
(-2.31123e+06 1.9183e+06 -92243.1 -450630 375337 90991.7)
(-2.2811e+06 850852 389683 62312.1 126795 555119)
(-1.92717e+06 -488104 89760.1 92364.3 -206056 444446)
(-727267 -475189 -607768 -29770.8 -267001 -504231)
(-958046 -786786 724658 -13162.7 -80462.9 174088)
(-2.49161e+06 -1.6592e+06 -118381 65446.9 -237830 35711)
(-3.51545e+06 -1.4483e+06 -589398 229046 -204733 -81960.6)
(-4.3038e+06 -696897 -789188 345153 -87185.7 -125587)
(-4.86849e+06 258546 -847026 413218 56255 -140798)
(-5.20096e+06 1.25042e+06 -832240 445270 209081 -149338)
(-5.30283e+06 2.19413e+06 -775798 448177 368854 -156578)
(-5.1826e+06 3.03935e+06 -689428 422206 535600 -161665)
(-4.85282e+06 3.74592e+06 -577039 360301 706462 -159376)
(-4.32894e+06 4.27254e+06 -440816 250331 870264 -140844)
(-3.63773e+06 4.56751e+06 -273171 95896.2 999758 -101061)
(-2.86213e+06 4.53839e+06 -31729.5 -24932.1 1.04691e+06 -43940.3)
(-2.18808e+06 4.00522e+06 325937 58956.9 966387 50966.4)
(-1.79712e+06 2.75478e+06 681280 341017 779864 277937)
(-1.45241e+06 1.05652e+06 546619 348271 493550 613639)
(-608679 93373.9 -17574.1 96212.2 102510 108807)
(-318165 -105628 84944.8 -137760 126946 -116131)
(-946733 177545 -561681 -200341 155653 -154223)
(-1.53729e+06 1.24736e+06 -940284 2921.13 291151 -169675)
(-2.00519e+06 2.65996e+06 -1.0097e+06 254185 446338 -135799)
(-2.27993e+06 4.0553e+06 -917833 481559 576386 -105308)
(-2.36909e+06 5.26785e+06 -758163 669315 684086 -89461.6)
(-2.30687e+06 6.23158e+06 -571487 815902 780413 -82654.4)
(-2.1255e+06 6.91701e+06 -371723 919728 872040 -78376.6)
(-1.84959e+06 7.30381e+06 -162843 975292 960206 -71915.6)
(-1.49979e+06 7.37107e+06 53698 974701 1.04026e+06 -58073.9)
(-1.10099e+06 7.09273e+06 278921 916131 1.09864e+06 -30822.8)
(-701954 6.43297e+06 521397 828688 1.10812e+06 12871.6)
(-399095 5.34526e+06 787219 801117 1.0347e+06 73084.5)
(-304377 3.79943e+06 1.01958e+06 902295 874685 179078)
(-364503 1.95343e+06 1.00627e+06 917619 681167 361680)
(-203806 498020 594507 424210 444969 465727)
(213048 -173540 115919 -107522 175011 -242500)
(469102 275785 -545094 -420124 531023 -371966)
(451777 1.78746e+06 -990024 -556479 710982 -261755)
(439560 3.50499e+06 -968442 -365940 865553 -100479)
(648214 4.98462e+06 -753975 -122124 915709 -20.0474)
(1.02827e+06 6.0966e+06 -496109 111873 900077 41290.2)
(1.47753e+06 6.84285e+06 -245526 325227 858956 51589.7)
(1.91638e+06 7.24857e+06 -9750.91 516012 813874 50504.3)
(2.29591e+06 7.32948e+06 214121 679250 773184 46492.9)
(2.58613e+06 7.08988e+06 428308 806774 738215 43541.3)
(2.76336e+06 6.52764e+06 631872 892478 704197 46218.6)
(2.79824e+06 5.64173e+06 819535 943439 658107 58980.3)
(2.64462e+06 4.44903e+06 974847 997309 580684 79940)
(2.24041e+06 3.0152e+06 1.04972e+06 1.10822e+06 467267 105782)
(1.54696e+06 1.52241e+06 917423 1.18964e+06 368272 162804)
(563336 397192 475439 597527 443552 289577)
(464336 -496405 595267 132005 -105757 79509)
(1.3889e+06 -733890 116520 -197408 334151 -365901)
(1.75615e+06 516515 -636897 -776591 644091 -597634)
(1.76304e+06 2.27751e+06 -630382 -858120 951736 -171654)
(2.18039e+06 3.47781e+06 -329299 -767722 985105 86988.4)
(2.90711e+06 4.07712e+06 -26573.1 -658682 850309 181889)
(3.71551e+06 4.23927e+06 208969 -544532 658768 196796)
(4.44812e+06 4.10486e+06 389019 -418791 465077 183389)
(5.02226e+06 3.75323e+06 533829 -280118 290054 160920)
(5.39676e+06 3.22279e+06 654805 -133819 141543 134214)
(5.54734e+06 2.53403e+06 753342 13170.3 22264 105543)
(5.45343e+06 1.70841e+06 820739 159353 -69137.7 76870.6)
(5.09091e+06 792761 831954 317421 -134999 43355.7)
(4.42059e+06 -98748.9 730692 513460 -164051 -11726.8)
(3.33953e+06 -704068 386538 707708 -99501 -89105.9)
(1.33847e+06 -444902 -472723 395349 190948 -13452.9)
(860319 -1.05389e+06 1.23887e+06 130187 -387780 645372)
(1.84202e+06 -2.20255e+06 372313 -106937 -412928 -97575.6)
(2.1875e+06 -1.41972e+06 -339275 -733916 -106937 -622052)
(2.16565e+06 229005 -302989 -929613 316760 -548978)
(2.09589e+06 1.16523e+06 162814 -879403 623596 13033.3)
(2.66183e+06 1.09828e+06 525805 -936921 513264 237632)
(3.46429e+06 460994 708742 -1.02343e+06 254662 278559)
(4.22533e+06 -401299 775715 -1.09179e+06 -22455.9 258544)
(4.82608e+06 -1.31313e+06 783623 -1.12077e+06 -273478 221251)
(5.22411e+06 -2.19634e+06 760376 -1.10573e+06 -482648 175324)
(5.40199e+06 -3.01094e+06 712416 -1.04902e+06 -640846 121157)
(5.34702e+06 -3.72037e+06 632698 -952659 -740343 58100.6)
(5.04555e+06 -4.26148e+06 496842 -813462 -770401 -21083.8)
(4.46989e+06 -4.48964e+06 242576 -623088 -705370 -137055)
(3.50101e+06 -4.03395e+06 -313768 -388525 -494911 -299975)
(1.44679e+06 -1.78396e+06 -1.88521e+06 -131594 -206925 -282255)
(917849 -1.86608e+06 2.02008e+06 -235099 -361471 958041)
(1.85162e+06 -3.88106e+06 190821 -646696 -923203 106822)
(1.85675e+06 -3.30858e+06 -577436 -1.02895e+06 -843121 -237727)
(1.74473e+06 -1.59494e+06 -610459 -1.09529e+06 -608621 -576451)
(1.3841e+06 -524148 239501 -743431 -248550 -216706)
(1.25899e+06 -981855 862731 -586963 -94776.3 177564)
(1.6109e+06 -2.25867e+06 1.04941e+06 -761415 -281928 259257)
(2.00419e+06 -3.72938e+06 1.01242e+06 -999261 -529667 237098)
(2.28935e+06 -5.10036e+06 889623 -1.21801e+06 -755065 193723)
(2.44702e+06 -6.26656e+06 738329 -1.39094e+06 -935640 141586)
(2.48618e+06 -7.18476e+06 569955 -1.51113e+06 -1.05923e+06 78692.2)
(2.41146e+06 -7.81479e+06 379115 -1.5772e+06 -1.11424e+06 4113.36)
(2.22245e+06 -8.08726e+06 145737 -1.58877e+06 -1.08655e+06 -86782.6)
(1.91312e+06 -7.84215e+06 -191216 -1.54632e+06 -952179 -208686)
(1.44453e+06 -6.62865e+06 -856336 -1.42169e+06 -688629 -373877)
(580995 -2.84778e+06 -2.92644e+06 -665819 -561242 -456666)
(272844 -2.48752e+06 2.48718e+06 -701980 -48247.8 798475)
(574612 -5.11471e+06 -72571 -1.48203e+06 -851321 183767)
(653156 -4.5406e+06 -913816 -1.63638e+06 -916490 -55232.8)
(734136 -2.79669e+06 -1.12405e+06 -1.59883e+06 -870937 -225969)
(415571 -1.26791e+06 -503120 -1.02086e+06 -813799 -238630)
(-78486.8 -1.41092e+06 612741 -319927 -685129 208646)
(-246283 -2.92901e+06 994929 -159203 -751642 237235)
(-350694 -4.60783e+06 932060 -376688 -919609 164051)
(-565683 -6.05913e+06 741564 -662353 -1.05159e+06 102744)
(-847267 -7.20134e+06 536898 -937021 -1.13538e+06 51017.4)
(-1.13134e+06 -8.02894e+06 331258 -1.18024e+06 -1.16709e+06 -5220.55)
(-1.38367e+06 -8.52067e+06 116225 -1.3874e+06 -1.14007e+06 -67265.2)
(-1.58487e+06 -8.61672e+06 -124663 -1.55918e+06 -1.04841e+06 -133001)
(-1.70605e+06 -8.16974e+06 -442779 -1.69945e+06 -886777 -204832)
(-1.6406e+06 -6.7591e+06 -1.03815e+06 -1.75403e+06 -670473 -298895)
(-769791 -2.86704e+06 -2.8618e+06 -872878 -694884 -516890)
(-774315 -2.33939e+06 2.17061e+06 -911470 330361 250747)
(-1.53293e+06 -4.82237e+06 -203855 -1.90266e+06 -289990 158210)
(-1.3097e+06 -4.35855e+06 -979339 -1.99724e+06 -405935 8807.65)
(-839270 -2.86504e+06 -1.22172e+06 -1.93592e+06 -403768 -104163)
(-505984 -1.28957e+06 -974705 -1.47671e+06 -442865 -124504)
(-871964 -836833 -163849 -572984 -539648 180403)
(-1.33964e+06 -1.93697e+06 481994 20898.1 -637861 463540)
(-1.53399e+06 -3.47987e+06 481895 -21933.4 -877198 204331)
(-1.96872e+06 -4.60988e+06 298079 -276914 -996975 58173.7)
(-2.51683e+06 -5.35211e+06 136548 -547651 -1.02259e+06 -14127.8)
(-3.02442e+06 -5.80813e+06 -2773.23 -801696 -987376 -65807.1)
(-3.42269e+06 -6.00583e+06 -141452 -1.03695e+06 -905506 -107225)
(-3.67649e+06 -5.91265e+06 -294531 -1.25502e+06 -789403 -132881)
(-3.72898e+06 -5.42651e+06 -497174 -1.45589e+06 -659154 -136904)
(-3.36976e+06 -4.28602e+06 -857643 -1.56519e+06 -558745 -146203)
(-1.52236e+06 -1.7526e+06 -1.72833e+06 -789351 -640874 -492397)
(-1.2846e+06 -1.35144e+06 1.1921e+06 -832739 579748 -326757)
(-2.61688e+06 -2.83267e+06 -118851 -1.77923e+06 340128 87006)
(-2.4048e+06 -2.59118e+06 -647104 -1.8859e+06 219877 32669.9)
(-1.7856e+06 -1.66221e+06 -819970 -1.81196e+06 203450 -59593.9)
(-1.13937e+06 -613813 -710128 -1.50499e+06 204804 -116373)
(-872411 -77150.9 -283561 -798744 153014 -6065.12)
(-1.24959e+06 -695938 194708 -90007.7 44254.8 447114)
(-1.63645e+06 -1.87892e+06 161564 -69875.7 -216552 539573)
(-1.90426e+06 -2.58757e+06 -35607.7 -427230 -622519 184774)
(-2.4222e+06 -2.80709e+06 -137585 -643648 -751061 18962.8)
(-2.93869e+06 -2.78736e+06 -191526 -787430 -737547 -65278.3)
(-3.34812e+06 -2.62449e+06 -248940 -901704 -656786 -106464)
(-3.61084e+06 -2.3196e+06 -321387 -996374 -553275 -109941)
(-3.66578e+06 -1.82926e+06 -422489 -1.06349e+06 -469953 -74869.8)
(-3.30215e+06 -1.09364e+06 -537415 -1.02502e+06 -457095 -38270.4)
(-1.48685e+06 -328751 -241826 -481038 -443762 -406486)
(-1.02677e+06 -283087 140180 -496333 545589 -594844)
(-2.14036e+06 -641490 11102 -1.11051e+06 657078 -6629.79)
(-2.0377e+06 -568586 -253006 -1.1975e+06 576707 18685.7)
(-1.55899e+06 -183643 -355217 -1.08134e+06 565784 -51297.5)
(-1.00414e+06 258572 -309384 -840689 612876 -112929)
(-649451 484697 -105545 -401327 657660 -105303)
(-730899 181333 154696 132191 676680 101772)
(-1.09158e+06 -653150 83297.8 127205 599341 556900)
(-1.29668e+06 -1.1064e+06 -342350 -510600 137031 496545)
(-1.38533e+06 -885534 -433272 -926233 -363924 154368)
(-1.51138e+06 -521573 -414682 -933104 -468223 -3533.43)
(-1.58437e+06 -105773 -391983 -863284 -441739 -68362.7)
(-1.58322e+06 338134 -378053 -757901 -376811 -78129.6)
(-1.47625e+06 808352 -378477 -604017 -327582 -52192.2)
(-1.19568e+06 1.22496e+06 -314326 -337086 -327441 -29273.3)
(-500153 699899 722381 -81514.6 -153645 -225776)
(358067 118834 -22753.1 -120399 216480 -312561)
(689591 197619 341777 -294353 355283 -31887.2)
(721691 197185 316554 -327320 335581 -2854.62)
(875369 307108 314486 -261153 339214 -29400.6)
(1.0264e+06 435909 377563 -154584 375068 -57718.7)
(1.00832e+06 503275 504422 -1767.67 421467 -65915.7)
(658818 418475 641413 178131 459669 -6735.56)
(11033.7 96514.3 614309 181995 470229 157898)
(-419247 -317870 205508 -216493 333692 345247)
(-272413 -407536 -159725 -542659 -51409.1 122562)
(177319 -173015 -252309 -523348 -145415 22365.8)
(669777 110751 -256095 -448276 -154296 -17281.2)
(1.15901e+06 404664 -231338 -349684 -137815 -26522.8)
(1.62805e+06 703805 -199902 -220437 -123531 -21858.2)
(1.95994e+06 964269 -116511 -31403.3 -121451 -22275)
(1.03228e+06 536917 489611 41550.2 -5755.8 -53061.8)
(164226 998451 195932 78613.9 52956.5 227637)
(881657 2.22572e+06 546206 106184 329690 83933.2)
(1.88917e+06 2.48015e+06 561964 25080.9 394605 46479.3)
(2.69499e+06 2.44558e+06 552635 -16236.5 471475 37662.9)
(3.31097e+06 2.2658e+06 544772 -25882.7 544737 33643.1)
(3.75845e+06 1.97267e+06 531768 -8820.27 594388 21821.5)
(4.04138e+06 1.57131e+06 493712 45654.3 609362 -14859.5)
(4.1482e+06 1.10028e+06 394267 124952 626359 -90991.8)
(3.99899e+06 748007 181751 88505 730688 -171043)
(3.06154e+06 789420 -354606 -124662 729009 -276432)
(1.2222e+06 854930 -848649 -244099 271667 -435005)
(35070.9 973145 -578293 -130093 139714 46855.3)
(362079 1.45688e+06 -169121 45432.7 133496 186216)
(1.38061e+06 1.95998e+06 26384.3 201645 123751 98538.6)
(2.12048e+06 2.17505e+06 -122024 381561 50796.2 -10431.6)
(1.14898e+06 1.08378e+06 -682478 241896 -41100.4 215976)
(2.12325e+06 2.68624e+06 1.39616e+06 257390 250333 795897)
(4.98952e+06 5.8318e+06 1.30973e+06 416613 669243 256664)
(6.06594e+06 6.32971e+06 1.07715e+06 294176 774104 146397)
(6.50601e+06 6.24278e+06 905324 292908 887968 110565)
(6.54982e+06 5.87061e+06 759487 363023 990767 83977.8)
(6.28083e+06 5.27215e+06 613175 476434 1.05141e+06 40534.8)
(5.74305e+06 4.4823e+06 454826 639813 1.05444e+06 -51640.9)
(4.97831e+06 3.53002e+06 284309 825021 1.06561e+06 -213574)
(4.0565e+06 2.43921e+06 69686.8 784829 1.24104e+06 -358125)
(3.25409e+06 1.59296e+06 -460013 323410 1.3385e+06 -520766)
(2.32807e+06 1.36245e+06 -883833 -90145.9 771795 -897816)
(1.2633e+06 1.57415e+06 -25569.6 -147027 479576 -179560)
(1.11502e+06 2.22487e+06 776507 28460.6 556164 322692)
(1.8973e+06 3.12482e+06 953969 350122 541559 215296)
(2.47173e+06 3.65665e+06 381452 727576 393300 -32489.9)
(1.28403e+06 1.88336e+06 -1.71599e+06 467641 34888.3 281949)
(1.90134e+06 2.55207e+06 3.26575e+06 402097 389023 1.19172e+06)
(4.41544e+06 5.48604e+06 1.70428e+06 780746 570753 438407)
(5.21108e+06 5.86908e+06 1.05913e+06 817867 624904 263541)
(5.35784e+06 5.74229e+06 671599 984629 629593 185042)
(5.13942e+06 5.39051e+06 371706 1.20904e+06 606553 120994)
(4.66411e+06 4.85518e+06 104663 1.44329e+06 553286 43180.5)
(3.99004e+06 4.1594e+06 -145042 1.67142e+06 471245 -73470.6)
(3.15928e+06 3.32531e+06 -370008 1.86332e+06 408928 -237610)
(2.23955e+06 2.34858e+06 -590659 1.85633e+06 480171 -365431)
(1.458e+06 1.36447e+06 -935102 1.41348e+06 643165 -444375)
(1.1275e+06 874964 -1.25185e+06 760755 535176 -745372)
(506867 948466 -475485 409279 279212 -675180)
(-111739 1.30128e+06 1.03471e+06 343043 651211 247235)
(175235 1.83132e+06 1.48127e+06 449056 934379 271055)
(579867 2.1486e+06 624332 687755 875820 -58872.7)
(340279 1.09141e+06 -2.45674e+06 404505 305611 -160863)
(457212 1.13003e+06 4.32684e+06 414379 275699 1.06576e+06)
(1.00063e+06 2.25851e+06 1.76758e+06 941383 353760 524634)
(973709 2.08839e+06 726424 1.18802e+06 368188 327831)
(651420 1.73731e+06 128405 1.46999e+06 249218 220673)
(194509 1.37033e+06 -297920 1.75665e+06 75625.8 136417)
(-307190 995757 -640255 2.01109e+06 -118706 46223.3)
(-802038 613032 -928826 2.21234e+06 -313854 -67536.6)
(-1.25857e+06 228129 -1.1655e+06 2.33603e+06 -474448 -208308)
(-1.6404e+06 -169390 -1.35465e+06 2.30052e+06 -532752 -328259)
(-1.83287e+06 -565642 -1.54965e+06 1.95199e+06 -466067 -375047)
(-1.66606e+06 -768799 -1.66417e+06 1.30279e+06 -450291 -473037)
(-1.41985e+06 -484714 -1.07952e+06 873128 -628959 -692529)
(-1.8883e+06 -93040.1 508432 871439 -343828 -86019.1)
(-2.11971e+06 124306 1.48361e+06 899507 539689 552579)
(-1.56624e+06 149228 671875 793682 900850 25653.6)
(-651461 26122.3 -2.33987e+06 356704 467302 -669038)
(-939571 -496778 4.05819e+06 335430 64516.4 648512)
(-2.41684e+06 -1.5085e+06 1.4307e+06 859642 146576 398813)
(-3.44122e+06 -2.46974e+06 215284 1.18513e+06 135280 241182)
(-4.36123e+06 -3.24765e+06 -478169 1.43586e+06 -50993.3 153093)
(-5.13766e+06 -3.80127e+06 -928368 1.63763e+06 -307855 87582.8)
(-5.70951e+06 -4.14713e+06 -1.24773e+06 1.78122e+06 -581427 17653.1)
(-6.04117e+06 -4.30226e+06 -1.48465e+06 1.85739e+06 -841089 -68340.4)
(-6.11767e+06 -4.27593e+06 -1.65368e+06 1.85483e+06 -1.05664e+06 -171577)
(-5.93246e+06 -4.08618e+06 -1.75426e+06 1.74016e+06 -1.18761e+06 -269336)
(-5.45603e+06 -3.76335e+06 -1.79616e+06 1.44207e+06 -1.2058e+06 -319550)
(-4.64709e+06 -3.29161e+06 -1.73387e+06 933464 -1.17861e+06 -333726)
(-3.67962e+06 -2.54717e+06 -1.29767e+06 472277 -1.28921e+06 -379457)
(-3.25163e+06 -1.6342e+06 -98295.6 547309 -1.39327e+06 -282319)
(-3.47685e+06 -1.15294e+06 1.19606e+06 893628 -684901 577291)
(-2.99489e+06 -1.08319e+06 689098 874752 237860 487797)
(-1.16794e+06 -522556 -1.58625e+06 371718 266510 -787619)
(-1.44986e+06 -1.3556e+06 2.89772e+06 261028 -65666 244807)
(-3.78349e+06 -3.57971e+06 764592 677306 -86754.7 112876)
(-5.397e+06 -5.11658e+06 -394376 892832 -133157 22296.7)
(-6.70856e+06 -6.25762e+06 -1.02162e+06 968526 -302237 716.797)
(-7.69371e+06 -7.02235e+06 -1.35515e+06 965453 -525904 -11248.6)
(-8.30935e+06 -7.44289e+06 -1.53008e+06 898741 -760244 -39587.4)
(-8.54412e+06 -7.54663e+06 -1.61469e+06 777080 -976531 -87187.8)
(-8.40665e+06 -7.35121e+06 -1.63484e+06 607184 -1.14943e+06 -149983)
(-7.91537e+06 -6.878e+06 -1.5915e+06 385868 -1.25259e+06 -216000)
(-7.0903e+06 -6.1679e+06 -1.47686e+06 92033.6 -1.26584e+06 -259074)
(-5.96104e+06 -5.26945e+06 -1.26417e+06 -288319 -1.21314e+06 -253564)
(-4.6606e+06 -4.18358e+06 -852679 -643977 -1.20931e+06 -212587)
(-3.58856e+06 -2.92229e+06 -92270.3 -636945 -1.34457e+06 -106470)
(-3.31451e+06 -1.90354e+06 930853 -119445 -1.27005e+06 312066)
(-3.01252e+06 -1.4862e+06 1.04758e+06 290071 -495784 883309)
(-1.28871e+06 -710655 -534760 166699 -49430 -240369)
(-1.06441e+06 -1.27623e+06 1.67948e+06 180905 -62510.1 -12626.3)
(-2.89571e+06 -3.41364e+06 29375.2 418293 -379216 -196130)
(-4.34812e+06 -4.92758e+06 -991201 433812 -497083 -224292)
(-5.54904e+06 -6.01508e+06 -1.43358e+06 304154 -591093 -141101)
(-6.36697e+06 -6.69525e+06 -1.53236e+06 91757.4 -686214 -77888)
(-6.76791e+06 -7.02779e+06 -1.46858e+06 -179915 -777651 -63245.3)
(-6.78612e+06 -7.06154e+06 -1.33534e+06 -486912 -850359 -83441.3)
(-6.47197e+06 -6.82391e+06 -1.16587e+06 -804355 -886834 -121833)
(-5.87274e+06 -6.33634e+06 -961738 -1.11422e+06 -870460 -166385)
(-5.03465e+06 -5.63378e+06 -710863 -1.40994e+06 -790539 -200389)
(-4.01573e+06 -4.77133e+06 -395408 -1.68833e+06 -658482 -195945)
(-2.92179e+06 -3.79657e+06 9357.57 -1.90304e+06 -538575 -131268)
(-1.97305e+06 -2.72329e+06 531715 -1.87933e+06 -534116 -12401)
(-1.50365e+06 -1.67571e+06 1.11036e+06 -1.40207e+06 -597458 239018)
(-1.56288e+06 -1.08267e+06 1.32957e+06 -732708 -365595 762765)
(-845313 -487747 549952 -218150 161989 625162)
(-293024 -842896 1.07785e+06 -125253 -53306.8 -38089.7)
(-870115 -2.14838e+06 -338759 -182294 -410822 -474163)
(-1.5955e+06 -2.98991e+06 -1.39319e+06 -199773 -778168 -452290)
(-2.30379e+06 -3.52219e+06 -1.6409e+06 -411571 -844670 -204938)
(-2.59442e+06 -3.66132e+06 -1.45623e+06 -698150 -808879 -33647.3)
(-2.45039e+06 -3.5327e+06 -1.12662e+06 -1.04216e+06 -739584 20675)
(-1.99561e+06 -3.24055e+06 -781712 -1.41236e+06 -647485 5286.18)
(-1.35617e+06 -2.83694e+06 -453686 -1.76962e+06 -525416 -37446.4)
(-623009 -2.34751e+06 -136003 -2.08154e+06 -365272 -86879.6)
(137296 -1.79879e+06 187419 -2.32801e+06 -164725 -130128)
(860589 -1.23167e+06 528486 -2.49694e+06 64076.9 -145887)
(1.46396e+06 -691026 882417 -2.56485e+06 278461 -106075)
(1.82331e+06 -195664 1.21685e+06 -2.45498e+06 396808 -2790.31)
(1.76057e+06 237418 1.46271e+06 -2.02562e+06 360500 163299)
(1.14966e+06 428757 1.45054e+06 -1.27104e+06 307466 497236)
(350645 211870 1.01201e+06 -415902 612918 1.02584e+06)
(244114 -274003 1.05377e+06 -303561 53591.1 91386.6)
(1.04405e+06 -686088 15007 -770345 400569 -311616)
(1.32407e+06 -954398 -1.38826e+06 -998424 -389258 -821478)
(941089 -892921 -1.57606e+06 -1.13803e+06 -743920 -305882)
(1.08197e+06 -307884 -1.1299e+06 -1.31135e+06 -723071 82833.4)
(1.80447e+06 527211 -570711 -1.53484e+06 -588168 210008)
(2.82672e+06 1.38207e+06 -90409.4 -1.78884e+06 -412729 191891)
(3.89631e+06 2.15281e+06 295703 -2.02741e+06 -207597 124190)
(4.85939e+06 2.8021e+06 619756 -2.21074e+06 27399.1 47372.4)
(5.62855e+06 3.30838e+06 910638 -2.3151e+06 288265 -26001.2)
(6.1416e+06 3.64542e+06 1.17896e+06 -2.32865e+06 560132 -83248.9)
(6.33615e+06 3.78539e+06 1.40751e+06 -2.23928e+06 807675 -103283)
(6.13806e+06 3.71947e+06 1.53675e+06 -2.01349e+06 964448 -73739.3)
(5.44068e+06 3.45718e+06 1.46037e+06 -1.57774e+06 943147 -2365.27)
(4.05719e+06 2.88179e+06 1.0199e+06 -886133 721419 173848)
(1.58181e+06 1.24259e+06 141274 -238454 692618 806085)
(945215 604650 1.80012e+06 -30613 268008 524967)
(2.31322e+06 876607 659988 -497249 1.2586e+06 -10154.3)
(3.06966e+06 545385 -1.08856e+06 -1.21238e+06 762034 -808169)
(3.09251e+06 716672 -1.3646e+06 -1.5919e+06 -61323.4 -713150)
(3.00865e+06 1.50043e+06 -654467 -1.6843e+06 -249695 65046.2)
(3.83059e+06 2.81068e+06 105739 -1.67941e+06 -187312 382643)
(5.1119e+06 4.12091e+06 629350 -1.69402e+06 -56837 395138)
(6.41348e+06 5.22236e+06 948363 -1.70147e+06 103284 309023)
(7.50251e+06 6.06244e+06 1.15272e+06 -1.66256e+06 288036 205753)
(8.27888e+06 6.62716e+06 1.30015e+06 -1.55721e+06 491468 101379)
(8.69261e+06 6.90333e+06 1.40665e+06 -1.38094e+06 699940 -475.812)
(8.70277e+06 6.87904e+06 1.45199e+06 -1.13278e+06 886315 -89832.9)
(8.26542e+06 6.55924e+06 1.36898e+06 -800642 1.00216e+06 -161411)
(7.30942e+06 5.96438e+06 1.02133e+06 -348592 974302 -227827)
(5.61244e+06 4.96383e+06 152903 234821 731341 -251367)
(2.26753e+06 2.16332e+06 -1.72493e+06 277972 428866 278438)
(1.33655e+06 1.3827e+06 2.91156e+06 390417 396424 1.20301e+06)
(2.79612e+06 2.29801e+06 923484 450633 1.11404e+06 94910.1)
(3.25553e+06 1.50012e+06 -775764 -403064 1.25853e+06 -393906)
(3.48584e+06 1.29231e+06 -1.46679e+06 -1.16166e+06 634454 -965047)
(3.18784e+06 1.76402e+06 -420248 -1.47092e+06 296467 -252253)
(3.39205e+06 2.77652e+06 679877 -1.4572e+06 377766 386120)
(4.35188e+06 4.03275e+06 1.23492e+06 -1.27477e+06 433975 493488)
(5.41002e+06 5.07313e+06 1.40979e+06 -1.07455e+06 472084 413604)
(6.25436e+06 5.82593e+06 1.41104e+06 -840062 511158 306842)
(6.79942e+06 6.30088e+06 1.35157e+06 -559447 557777 195819)
(7.03182e+06 6.50639e+06 1.25771e+06 -238971 607607 74441.7)
(6.94186e+06 6.44697e+06 1.11033e+06 109907 648176 -55969.3)
(6.51455e+06 6.14119e+06 845689 483093 658168 -196659)
(5.71809e+06 5.62394e+06 315817 889776 607696 -367557)
(4.40574e+06 4.79265e+06 -846238 1.29227e+06 449259 -566668)
(1.79488e+06 2.13398e+06 -3.75411e+06 740522 -23982.5 -370180)
(957912 1.45123e+06 3.89669e+06 682974 409981 1.49797e+06)
(1.90851e+06 2.48364e+06 655465 1.2014e+06 295296 295596)
(1.95832e+06 1.54734e+06 -918818 596411 476570 -128789)
(2.27916e+06 1.0028e+06 -1.65313e+06 -192776 354572 -661505)
(2.08033e+06 1.13885e+06 -907045 -612895 78184.7 -692933)
(1.61372e+06 1.60902e+06 737453 -691614 450544 278934)
(1.87729e+06 2.23798e+06 1.50242e+06 -583387 764812 487080)
(2.33279e+06 2.7382e+06 1.56411e+06 -339672 782830 397596)
(2.57408e+06 2.9808e+06 1.36935e+06 -67196.9 697878 295357)
(2.58452e+06 3.02995e+06 1.12878e+06 233990 581943 203869)
(2.42938e+06 2.93744e+06 878301 549180 458314 98256.9)
(2.14686e+06 2.73211e+06 596707 856938 335564 -25705.6)
(1.75769e+06 2.44731e+06 228670 1.13983e+06 223505 -168623)
(1.28925e+06 2.1396e+06 -363242 1.38278e+06 143706 -352599)
(786736 1.82485e+06 -1.57683e+06 1.51434e+06 102194 -626677)
(266918 830469 -4.84752e+06 768209 -420799 -897831)
(-189874 486818 4.10692e+06 568454 317406 1.12117e+06)
(-457786 695267 233334 1.1087e+06 -582216 429158)
(-414577 112754 -1.26446e+06 826604 -614227 64844.5)
(21308.8 -265375 -1.88134e+06 240560 -642733 -302327)
(415596 -67179.8 -1.47871e+06 -81195 -846538 -703668)
(-120804 281467 80966.7 65674.5 -565274 -148474)
(-689683 434249 1.2159e+06 289838 331539 586550)
(-701452 387689 1.28831e+06 465184 692529 405638)
(-996789 16592.2 986690 637597 654097 245039)
(-1.52238e+06 -511538 681526 806592 488867 159643)
(-2.08384e+06 -1.05855e+06 400969 963302 285316 80361)
(-2.58357e+06 -1.55876e+06 108751 1.08499e+06 78159.3 -7445)
(-2.96706e+06 -1.96484e+06 -241275 1.14905e+06 -98490.8 -100880)
(-3.14731e+06 -2.2003e+06 -755251 1.12571e+06 -190834 -219566)
(-2.87501e+06 -2.09002e+06 -1.74737e+06 942353 -163237 -459413)
(-1.28925e+06 -958625 -4.41128e+06 398587 -672973 -1.15062e+06)
(-1.3029e+06 -867608 3.31318e+06 119139 295372 302082)
(-2.76956e+06 -1.90347e+06 -16226.8 262461 -982450 431033)
(-2.65986e+06 -2.0859e+06 -1.24632e+06 167502 -1.21662e+06 178322)
(-1.90313e+06 -1.98157e+06 -1.71178e+06 -158085 -1.28459e+06 -128481)
(-1.02717e+06 -1.53422e+06 -1.55845e+06 -414376 -1.434e+06 -427735)
(-901111 -881720 -514457 -110798 -1.53455e+06 -471363)
(-1.73744e+06 -701989 812172 514235 -798274 409790)
(-2.46326e+06 -983808 940950 942563 154803 702469)
(-3.01269e+06 -1.55702e+06 599399 1.10698e+06 345385 338908)
(-3.84489e+06 -2.48796e+06 327475 1.08462e+06 267154 156080)
(-4.65567e+06 -3.43041e+06 108581 997945 110129 53329.3)
(-5.29524e+06 -4.24296e+06 -124309 854790 -74390.8 -18299.7)
(-5.69057e+06 -4.86572e+06 -404958 644958 -240827 -63644.4)
(-5.72405e+06 -5.21335e+06 -793731 346693 -333944 -104406)
(-5.04653e+06 -4.98516e+06 -1.43367e+06 -66988.8 -323247 -254371)
(-2.23158e+06 -2.33319e+06 -2.7258e+06 -152851 -702834 -1.10371e+06)
(-1.88184e+06 -1.76034e+06 1.81139e+06 -414254 323895 -430558)
(-3.98914e+06 -3.63923e+06 -75710.1 -833411 -781939 272939)
(-3.8662e+06 -3.61938e+06 -890647 -894961 -1.11412e+06 169913)
(-2.93607e+06 -3.23336e+06 -1.20968e+06 -1.05198e+06 -1.22259e+06 -83386.4)
(-1.79361e+06 -2.61296e+06 -1.17206e+06 -1.18652e+06 -1.29031e+06 -315942)
(-1.0693e+06 -1.77056e+06 -706623 -969714 -1.41826e+06 -407073)
(-1.51278e+06 -1.12985e+06 136162 -261456 -1.27445e+06 -24914.3)
(-2.59764e+06 -1.14487e+06 408866 423690 -388383 807552)
(-3.35687e+06 -1.53539e+06 -87034.9 777617 95308.8 691383)
(-3.91942e+06 -2.20917e+06 -272119 769550 40755.6 277772)
(-4.40033e+06 -3.12481e+06 -346539 454152 -22008.6 81008.3)
(-4.70242e+06 -3.94911e+06 -427949 68834.2 -135477 -12908.6)
(-4.78015e+06 -4.61292e+06 -540112 -357100 -260573 -45349)
(-4.53992e+06 -5.04488e+06 -713478 -815587 -364929 -55565.2)
(-3.75521e+06 -4.96246e+06 -960645 -1.24316e+06 -449783 -145681)
(-1.59308e+06 -2.36693e+06 -877344 -717061 -603864 -779190)