/*--------------------------------*- C++ -*----------------------------------*\
| =========                 |                                                 |
| \\      /  F ield         | OpenFOAM: The Open Source CFD Toolbox           |
|  \\    /   O peration     | Version:  v2012                                 |
|   \\  /    A nd           | Website:  www.openfoam.com                      |
|    \\/     M anipulation  |                                                 |
\*---------------------------------------------------------------------------*/
FoamFile
{
    version     2.0;
    format      ascii;
    class       pointSymmTensorField;
    location    "1";
    object      pEpsilon;
}
// * * * * * * * * * * * * * * * * * * * * * * * * * * * * * * * * * * * * * //

dimensions      [0 0 0 0 0 0 0];


internalField   nonuniform List<symmTensor> 
4913
(
(0 0 0 0 0 0)
(0 0 0 0 0 0)
(0 0 0 0 0 0)
(0 0 0 0 0 0)
(0 0 0 0 0 0)
(0 0 0 0 0 0)
(0 0 0 0 0 0)
(0 0 0 0 0 0)
(0 0 0 0 0 0)
(0 0 0 0 0 0)
(0 0 0 0 0 0)
(0 0 0 0 0 0)
(0 0 0 0 0 0)
(0 0 0 0 0 0)
(0 0 0 0 0 0)
(0 0 0 0 0 0)
(0 0 0 0 0 0)
(0 0 0 0 0 0)
(0 0 0 0 0 0)
(0 0 0 0 0 0)
(0 0 0 0 0 0)
(0 0 0 0 0 0)
(0 0 0 0 0 0)
(0 0 0 0 0 0)
(0 0 0 0 0 0)
(0 0 0 0 0 0)
(0 0 0 0 0 0)
(0 0 0 0 0 0)
(0 0 0 0 0 0)
(0 0 0 0 0 0)
(0 0 0 0 0 0)
(0 0 0 0 0 0)
(0 0 0 0 0 0)
(0 0 0 0 0 0)
(0 0 0 0 0 0)
(0 0 0 0 0 0)
(0 0 0 0 0 0)
(0 0 0 0 0 0)
(0 0 0 0 0 0)
(0 0 0 0 0 0)
(0 0 0 0 0 0)
(0 0 0 0 0 0)
(0 0 0 0 0 0)
(0 0 0 0 0 0)
(0 0 0 0 0 0)
(0 0 0 0 0 0)
(0 0 0 0 0 0)
(0 0 0 0 0 0)
(0 0 0 0 0 0)
(0 0 0 0 0 0)
(0 0 0 0 0 0)
(0 0 0 0 0 0)
(0 0 0 0 0 0)
(0 0 0 0 0 0)
(0 0 0 0 0 0)
(0 0 0 0 0 0)
(0 0 0 0 0 0)
(0 0 0 0 0 0)
(0 0 0 0 0 0)
(0 0 0 0 0 0)
(0 0 0 0 0 0)
(0 0 0 0 0 0)
(0 0 0 0 0 0)
(0 0 0 0 0 0)
(0 0 0 0 0 0)
(0 0 0 0 0 0)
(0 0 0 0 0 0)
(0 0 0 0 0 0)
(0 0 0 0 0 0)
(0 0 0 0 0 0)
(0 0 0 0 0 0)
(0 0 0 0 0 0)
(0 0 0 0 0 0)
(0 0 0 0 0 0)
(0 0 0 0 0 0)
(0 0 0 0 0 0)
(0 0 0 0 0 0)
(0 0 0 0 0 0)
(0 0 0 0 0 0)
(0 0 0 0 0 0)
(0 0 0 0 0 0)
(0 0 0 0 0 0)
(0 0 0 0 0 0)
(0 0 0 0 0 0)
(0 0 0 0 0 0)
(0 0 0 0 0 0)
(0 0 0 0 0 0)
(0 0 0 0 0 0)
(0 0 0 0 0 0)
(0 0 0 0 0 0)
(0 0 0 0 0 0)
(0 0 0 0 0 0)
(0 0 0 0 0 0)
(0 0 0 0 0 0)
(0 0 0 0 0 0)
(0 0 0 0 0 0)
(0 0 0 0 0 0)
(0 0 0 0 0 0)
(0 0 0 0 0 0)
(0 0 0 0 0 0)
(0 0 0 0 0 0)
(0 0 0 0 0 0)
(0 0 0 0 0 0)
(0 0 0 0 0 0)
(0 0 0 0 0 0)
(0 0 0 0 0 0)
(0 0 0 0 0 0)
(0 0 0 0 0 0)
(0 0 0 0 0 0)
(0 0 0 0 0 0)
(0 0 0 0 0 0)
(0 0 0 0 0 0)
(0 0 0 0 0 0)
(0 0 0 0 0 0)
(0 0 0 0 0 0)
(0 0 0 0 0 0)
(0 0 0 0 0 0)
(0 0 0 0 0 0)
(0 0 0 0 0 0)
(0 0 0 0 0 0)
(0 0 0 0 0 0)
(0 0 0 0 0 0)
(0 0 0 0 0 0)
(0 0 0 0 0 0)
(0 0 0 0 0 0)
(0 0 0 0 0 0)
(0 0 0 0 0 0)
(0 0 0 0 0 0)
(0 0 0 0 0 0)
(0 0 0 0 0 0)
(0 0 0 0 0 0)
(0 0 0 0 0 0)
(0 0 0 0 0 0)
(0 0 0 0 0 0)
(0 0 0 0 0 0)
(0 0 0 0 0 0)
(0 0 0 0 0 0)
(0 0 0 0 0 0)
(0 0 0 0 0 0)
(0 0 0 0 0 0)
(0 0 0 0 0 0)
(0 0 0 0 0 0)
(0 0 0 0 0 0)
(0 0 0 0 0 0)
(0 0 0 0 0 0)
(0 0 0 0 0 0)
(0 0 0 0 0 0)
(0 0 0 0 0 0)
(0 0 0 0 0 0)
(0 0 0 0 0 0)
(0 0 0 0 0 0)
(0 0 0 0 0 0)
(0 0 0 0 0 0)
(0 0 0 0 0 0)
(0 0 0 0 0 0)
(0 0 0 0 0 0)
(0 0 0 0 0 0)
(0 0 0 0 0 0)
(0 0 0 0 0 0)
(0 0 0 0 0 0)
(0 0 0 0 0 0)
(0 0 0 0 0 0)
(0 0 0 0 0 0)
(0 0 0 0 0 0)
(0 0 0 0 0 0)
(0 0 0 0 0 0)
(0 0 0 0 0 0)
(0 0 0 0 0 0)
(0 0 0 0 0 0)
(0 0 0 0 0 0)
(0 0 0 0 0 0)
(0 0 0 0 0 0)
(0 0 0 0 0 0)
(0 0 0 0 0 0)
(0 0 0 0 0 0)
(0 0 0 0 0 0)
(0 0 0 0 0 0)
(0 0 0 0 0 0)
(0 0 0 0 0 0)
(0 0 0 0 0 0)
(0 0 0 0 0 0)
(0 0 0 0 0 0)
(0 0 0 0 0 0)
(0 0 0 0 0 0)
(0 0 0 0 0 0)
(0 0 0 0 0 0)
(0 0 0 0 0 0)
(0 0 0 0 0 0)
(0 0 2.28857e+06 0 -48833.6 921995)
(0 0 5.23171e+06 0 355222 1.57313e+06)
(0 0 6.30123e+06 0 447256 1.56563e+06)
(0 0 4.98807e+06 0 220603 1.16173e+06)
(0 0 2.55086e+06 0 -6083.62 635181)
(0 0 634772 0 32409 61172.4)
(0 0 -1557.83 0 243112 -525697)
(0 0 424537 0 -28067.8 -444303)
(0 0 1.35321e+06 0 -235942 762340)
(0 0 3.07385e+06 0 -24432.1 1.81915e+06)
(0 0 4.90955e+06 0 494629 2.01302e+06)
(0 0 5.45523e+06 0 909330 1.18088e+06)
(0 0 3.90661e+06 0 913609 -177896)
(0 0 1.33741e+06 0 751869 -1.12913e+06)
(0 0 -716135 0 240797 -1.25024e+06)
(0 0 -1.96012e+06 0 -206061 -11446.8)
(0 0 -656752 0 -2329.67 699907)
(0 0 2.0764e+06 0 613.761 928200)
(0 0 4.30399e+06 0 -161512 607493)
(0 0 4.86205e+06 0 -294828 189645)
(0 0 3.87842e+06 0 -200902 93227.6)
(0 0 2.38593e+06 0 114612 320792)
(0 0 1.37378e+06 0 350937 496850)
(0 0 933339 0 -7825.57 -449340)
(0 0 1.10313e+06 0 -191323 -32280)
(0 0 1.94054e+06 0 -119315 1.01217e+06)
(0 0 3.31067e+06 0 157326 1.78582e+06)
(0 0 4.47955e+06 0 528705 1.69586e+06)
(0 0 4.44295e+06 0 898496 819500)
(0 0 2.7328e+06 0 922679 -162356)
(0 0 436532 0 757957 10517.2)
(0 0 78209.8 0 904749 193458)
(0 0 -33865.2 0 492941 493675)
(0 0 588956 0 -134483 437806)
(0 0 1.6782e+06 0 -644730 -82966.8)
(0 0 2.58704e+06 0 -754051 -699666)
(0 0 2.81271e+06 0 -492951 -887133)
(0 0 2.34642e+06 0 -98563.3 -435063)
(0 0 1.63258e+06 0 96676.1 176930)
(0 0 1.11659e+06 0 -45128.7 -303743)
(0 0 970545 0 -167637 -630878)
(0 0 884343 0 -313888 -314893)
(0 0 870810 0 -360868 384261)
(0 0 959630 0 -183499 880534)
(0 0 865638 0 96831.1 725439)
(0 0 1.84375e+06 0 996750 951966)
(0 0 2.66859e+06 0 1.48319e+06 712550)
(0 0 3.16644e+06 0 1.53223e+06 650306)
(0 0 3.431e+06 0 1.10307e+06 792004)
(0 0 3.10007e+06 0 238817 801743)
(0 0 2.45186e+06 0 -511231 382892)
(0 0 1.85551e+06 0 -906824 -423401)
(0 0 1.48286e+06 0 -854632 -1.17336e+06)
(0 0 1.25396e+06 0 -584262 -1.41439e+06)
(0 0 1.08029e+06 0 -317785 -1.04684e+06)
(0 0 1.24529e+06 0 -10309.4 -3031.87)
(0 0 1.62727e+06 0 -17081.2 -57283.4)
(0 0 1.78509e+06 0 -223342 -371564)
(0 0 1.29629e+06 0 -426520 -475403)
(0 0 335917 0 -452451 -344790)
(0 0 -697124 0 -22741.5 556064)
(0 0 -659514 0 608473 699335)
(0 0 338006 0 1.24393e+06 607698)
(0 0 2.05236e+06 0 1.5089e+06 567184)
(0 0 4.02547e+06 0 1.26984e+06 795129)
(0 0 5.4917e+06 0 822356 1.19111e+06)
(0 0 5.3538e+06 0 25215 1.26684e+06)
(0 0 3.97721e+06 0 -627163 791927)
(0 0 2.37381e+06 0 -979884 -148341)
(0 0 1.33718e+06 0 -912019 -1.08587e+06)
(0 0 998066 0 -517711 -1.36734e+06)
(0 0 1.1745e+06 0 126429 178218)
(0 0 1.70291e+06 0 188150 908356)
(0 0 2.40121e+06 0 59958.3 729478)
(0 0 2.25273e+06 0 8467.63 119211)
(0 0 1.5871e+06 0 -72087.4 236581)
(0 0 526756 0 16172.1 -8902.33)
(0 0 -1.63663e+06 0 233094 -235320)
(0 0 -2.98892e+06 0 568994 -383353)
(0 0 -2.27281e+06 0 936490 -308487)
(0 0 328747 0 1.15735e+06 87620.9)
(0 0 3.50647e+06 0 880068 684699)
(0 0 5.914e+06 0 522500 1.35963e+06)
(0 0 6.15611e+06 0 -174589 1.61966e+06)
(0 0 4.74541e+06 0 -706784 1.30177e+06)
(0 0 3.00163e+06 0 -852645 543029)
(0 0 1.72428e+06 0 -474140 -110074)
(0 0 593773 0 79293.1 5069.32)
(0 0 32864.4 0 59629.2 793340)
(0 0 187155 0 -112128 1.02307e+06)
(0 0 3.45606e+06 0 425628 1.71621e+06)
(0 0 5.6632e+06 0 361773 1.41157e+06)
(0 0 5.25421e+06 0 236374 629471)
(0 0 2.11609e+06 0 112105 -237095)
(0 0 -2.11682e+06 0 90454.2 -941438)
(0 0 -4.97524e+06 0 256600 -1.28086e+06)
(0 0 -4.79103e+06 0 508508 -1.11492e+06)
(0 0 -1.85983e+06 0 734919 -473574)
(0 0 1.86813e+06 0 439179 329645)
(0 0 4.7232e+06 0 145538 1.14824e+06)
(0 0 5.34119e+06 0 -356409 1.67698e+06)
(0 0 4.21432e+06 0 -614832 1.78979e+06)
(0 0 2.42733e+06 0 -514717 1.37288e+06)
(0 0 180604 0 -287231 -397682)
(0 0 -973866 0 -339914 -559110)
(0 0 -331690 0 388715 961240)
(0 0 1.79742e+06 0 307681 1.88451e+06)
(0 0 5.17189e+06 0 220659 2.25332e+06)
(0 0 7.52538e+06 0 158801 1.88976e+06)
(0 0 6.83318e+06 0 61557 924408)
(0 0 2.85366e+06 0 -54639.1 -267023)
(0 0 -2.46105e+06 0 -110064 -1.24586e+06)
(0 0 -6.22533e+06 0 -13547 -1.71096e+06)
(0 0 -6.56773e+06 0 130315 -1.57503e+06)
(0 0 -3.85157e+06 0 316034 -954164)
(0 0 -289834 0 34111.2 -147540)
(0 0 2.36105e+06 0 -200450 635720)
(0 0 2.99564e+06 0 -548683 1.30588e+06)
(0 0 2.05062e+06 0 -684772 1.36554e+06)
(0 0 395717 0 -411332 -434153)
(0 0 -1.892e+06 0 388301 -1.03318e+06)
(0 0 -2.96212e+06 0 361700 -771814)
(0 0 -2.24749e+06 0 90086.5 286814)
(0 0 662134 0 -166489 1.49856e+06)
(0 0 4.66646e+06 0 -282198 2.18772e+06)
(0 0 7.42285e+06 0 -266967 1.99224e+06)
(0 0 6.89239e+06 0 -220222 1.04037e+06)
(0 0 2.92045e+06 0 -220628 -176051)
(0 0 -2.45714e+06 0 -227238 -1.13564e+06)
(0 0 -6.37e+06 0 -128703 -1.58291e+06)
(0 0 -7.06431e+06 0 -57245.5 -1.54172e+06)
(0 0 -4.95669e+06 0 34045.6 -1.17609e+06)
(0 0 -2.12311e+06 0 -292401 -619955)
(0 0 -139506 0 -606302 -282626)
(0 0 385147 0 -738752 -54544.7)
(0 0 -600070 0 333069 91093.7)
(0 0 -1.57671e+06 0 671318 -934982)
(0 0 -2.88856e+06 0 600597 -1.59037e+06)
(0 0 -3.80515e+06 0 151735 -1.338e+06)
(0 0 -3.16884e+06 0 -430094 -273514)
(0 0 -499340 0 -825311 992054)
(0 0 3.20624e+06 0 -890383 1.74751e+06)
(0 0 5.81356e+06 0 -769935 1.65067e+06)
(0 0 5.53014e+06 0 -535091 888740)
(0 0 2.30965e+06 0 -256114 -42232.6)
(0 0 -2.06097e+06 0 -67279.1 -698709)
(0 0 -5.22281e+06 0 80998.9 -964718)
(0 0 -5.81238e+06 0 50017 -1.01618e+06)
(0 0 -4.17511e+06 0 -89955.8 -1.03562e+06)
(0 0 -1.82721e+06 0 -441726 -706599)
(0 0 -173629 0 -17728.2 -934223)
(0 0 -220948 0 484168 172368)
(0 0 -482065 0 816138 -8741.93)
(0 0 -1.18412e+06 0 769765 -816769)
(0 0 -2.35727e+06 0 264186 -1.44646e+06)
(0 0 -3.33651e+06 0 -426179 -1.35842e+06)
(0 0 -3.12639e+06 0 -1.00351e+06 -567374)
(0 0 -1.38694e+06 0 -1.48722e+06 465918)
(0 0 1.14092e+06 0 -1.51893e+06 1.13807e+06)
(0 0 3.06837e+06 0 -1.04396e+06 1.07961e+06)
(0 0 3.21897e+06 0 -413165 512421)
(0 0 1.5179e+06 0 221857 47094.7)
(0 0 -868519 0 625009 -78655.8)
(0 0 -2.35621e+06 0 732464 -13508.1)
(0 0 -2.00259e+06 0 491213 135456)
(0 0 -1.16249e+06 0 43656.5 -896730)
(0 0 -951194 0 165773 -842899)
(0 0 -676100 0 488766 -133222)
(0 0 -682051 0 544495 453392)
(0 0 -875921 0 289542 311480)
(0 0 -1.18214e+06 0 -3345.56 -438626)
(0 0 -1.59927e+06 0 -244780 -1.1536e+06)
(0 0 -2.18242e+06 0 -1.06921e+06 -1.12679e+06)
(0 0 -2.49534e+06 0 -1.62721e+06 -249621)
(0 0 -1.97876e+06 0 -1.53874e+06 518166)
(0 0 -732440 0 -1.14866e+06 522722)
(0 0 615600 0 -299498 399768)
(0 0 1.37203e+06 0 638751 186388)
(0 0 1.30344e+06 0 1.28243e+06 -51369.2)
(0 0 693724 0 1.30343e+06 301812)
(0 0 -654483 0 424828 413325)
(0 0 -1.02342e+06 0 556662 354723)
(0 0 -977742 0 527389 -217797)
(0 0 -1.24543e+06 0 -50492.3 -449573)
(0 0 -2.55187e+06 0 -804406 -245875)
(0 0 -3.26915e+06 0 -986725 -515122)
(0 0 -2.89916e+06 0 -589024 -922406)
(0 0 -2.94646e+06 0 -1.33229e+06 -1.13931e+06)
(0 0 -2.6348e+06 0 -1.20642e+06 -4353.78)
(0 0 -1.53721e+06 0 -379670 802543)
(0 0 -692476 0 -196013 -269115)
(0 0 -132669 0 355083 527475)
(0 0 128397 0 865858 1.2031e+06)
(0 0 174155 0 1.08388e+06 -325101)
(0 0 240116 0 1.00677e+06 -98763.4)
(0 0 259166 0 544241 548152)
(0 0 608938 0 994576 319063)
(0 0 1.07834e+06 0 916781 -108359)
(0 0 620457 0 -14512.2 -233662)
(0 0 131593 0 -180444 776237)
(0 0 557717 0 -207501 142214)
(0 0 634964 0 -321292 -674450)
(0 0 539218 0 -259412 693251)
(0 0 1.30976e+06 0 -127214 649456)
(0 0 1.4168e+06 0 122428 83122.4)
(0 0 545128 0 139898 768922)
(0 0 -245198 0 -156737 729723)
(0 0 -474925 0 249211 276459)
(0 0 -392848 0 801661 -277977)
(0 0 -793614 0 93938.1 -164714)
(0 0 -1.62049e+06 0 -306424 -52275.2)
(0 0 -1.81394e+06 0 351132 182352)
(0 0 -2.53739e+06 0 -336560 -725411)
(0 0 -3.04754e+06 0 -689781 -238883)
(0 0 -2.17292e+06 0 -161327 521808)
(0 0 -1.12106e+06 0 -194139 -719973)
(0 0 -502654 0 14023.5 -192643)
(0 0 185841 0 256953 778216)
(0 0 1.10398e+06 0 389549 -181376)
(0 0 1.96828e+06 0 779163 49666.8)
(0 0 1.92899e+06 0 562178 644714)
(0 0 1.71085e+06 0 442095 444452)
(0 0 2.4568e+06 0 1.02083e+06 393519)
(0 0 2.19063e+06 0 948849 281171)
(0 0 952670 0 606280 795814)
(4.57715e+06 -48833.6 460998 0 0 0)
(6.40593e+06 -3415.61 641128 0 0 0)
(7.3588e+06 -4394.21 788621 0 0 0)
(7.84818e+06 -29177.3 921616 0 0 0)
(7.97466e+06 -65548.5 1.03091e+06 0 0 0)
(7.77083e+06 -112227 1.10053e+06 0 0 0)
(7.25483e+06 -170946 1.10343e+06 0 0 0)
(6.4368e+06 -201152 1.00141e+06 0 0 0)
(5.27888e+06 -73183.8 774888 0 0 0)
(3.60366e+06 147627 398006 0 0 0)
(1.43936e+06 18819.4 -348160 0 0 0)
(2.02826e+06 98634.7 -382682 0 0 0)
(3.93957e+06 238719 -206263 0 0 0)
(5.85931e+06 364060 -103520 0 0 0)
(6.32691e+06 394978 -145095 0 0 0)
(-3.92025e+06 -206061 -5723.39 0 0 0)
(-3.5362e+06 -58555.7 -17987.8 0 0 0)
(-2.67184e+06 584.075 -72521.9 0 0 0)
(-1.75519e+06 -1682.54 -130191 0 0 0)
(-823769 -41277.9 -172199 0 0 0)
(112074 -118857 -198173 0 0 0)
(1.0278e+06 -255624 -230799 0 0 0)
(1.87338e+06 -366379 -310756 0 0 0)
(2.40688e+06 -84967.3 -426322 0 0 0)
(956726 408735 -602305 0 0 0)
(-1.11096e+06 245910 -726149 0 0 0)
(-2.21638e+06 131730 -597915 0 0 0)
(-2.30313e+06 114758 -401903 0 0 0)
(-1.97328e+06 84730.7 -307570 0 0 0)
(-1.73099e+06 -88814.6 -286857 0 0 0)
(873065 757957 5258.58 0 0 0)
(1.195e+06 968402 -15410.7 0 0 0)
(1.41401e+06 1.04302e+06 -131605 0 0 0)
(1.50342e+06 1.01992e+06 -271358 0 0 0)
(1.49098e+06 911770 -386427 0 0 0)
(1.41274e+06 704620 -451228 0 0 0)
(1.29636e+06 315967 -462671 0 0 0)
(1.22815e+06 -104772 -384303 0 0 0)
(1.38482e+06 352512 70157.2 0 0 0)
(809388 682363 154850 0 0 0)
(-217052 656118 137912 0 0 0)
(-1.03589e+06 597032 184010 0 0 0)
(-1.42705e+06 590511 228076 0 0 0)
(-1.52687e+06 568845 193415 0 0 0)
(-1.39019e+06 424156 118077 0 0 0)
(3.6875e+06 996750 475983 0 0 0)
(4.34984e+06 1.36965e+06 570165 0 0 0)
(4.28413e+06 1.55681e+06 553504 0 0 0)
(3.89483e+06 1.63133e+06 509188 0 0 0)
(3.33027e+06 1.60045e+06 474453 0 0 0)
(2.69765e+06 1.42277e+06 443015 0 0 0)
(2.04768e+06 813644 304149 0 0 0)
(1.9649e+06 -41281.2 -57390.2 0 0 0)
(2.16394e+06 98824.5 -170946 0 0 0)
(2.40173e+06 396514 -231175 0 0 0)
(2.59233e+06 570680 -245242 0 0 0)
(2.81283e+06 712861 -184526 0 0 0)
(3.09167e+06 864506 -102827 0 0 0)
(3.29643e+06 973123 -60086.4 0 0 0)
(3.00767e+06 893288 -58691.8 0 0 0)
(-1.39425e+06 -22741.5 278032 0 0 0)
(-1.0152e+06 321179 266094 0 0 0)
(-638893 648584 160730 0 0 0)
(-338685 934599 75934.7 0 0 0)
(40768.6 1.17241e+06 73239.3 0 0 0)
(756933 1.2903e+06 108089 0 0 0)
(1.38273e+06 451162 -185327 0 0 0)
(1.05689e+06 -333953 -431991 0 0 0)
(408986 -574805 -566985 0 0 0)
(-279012 -562402 -630194 0 0 0)
(-865433 -490594 -629982 0 0 0)
(-1.29414e+06 -374047 -567692 0 0 0)
(-1.56054e+06 -217324 -474956 0 0 0)
(-1.70352e+06 -70288.7 -379145 0 0 0)
(-1.66753e+06 -35555.7 -260637 0 0 0)
(3.1742e+06 -72087.4 118291 0 0 0)
(3.16719e+06 -66799.3 -104121 0 0 0)
(2.3736e+06 72949.3 -441691 0 0 0)
(1.22125e+06 287087 -674481 0 0 0)
(243516 655201 -511112 0 0 0)
(1.20841e+06 1.19727e+06 419086 0 0 0)
(2.45321e+06 839822 850956 0 0 0)
(2.95776e+06 257513 953679 0 0 0)
(2.83172e+06 -146998 912898 0 0 0)
(2.36065e+06 -395760 800666 0 0 0)
(1.75677e+06 -554703 654084 0 0 0)
(1.1297e+06 -638649 486598 0 0 0)
(513524 -651376 294783 0 0 0)
(-84984.8 -595061 94209.4 0 0 0)
(-524381 -428980 -30315.9 0 0 0)
(6.91213e+06 425628 858105 0 0 0)
(7.56488e+06 371395 827632 0 0 0)
(6.43027e+06 327964 477484 0 0 0)
(4.1186e+06 372469 14791.5 0 0 0)
(1.47891e+06 979667 -261421 0 0 0)
(2.3003e+06 1.6569e+06 127433 0 0 0)
(4.71922e+06 1.85421e+06 587064 0 0 0)
(7.25337e+06 1.75323e+06 894917 0 0 0)
(9.3299e+06 1.57897e+06 1.06785e+06 0 0 0)
(1.0847e+07 1.39243e+06 1.14357e+06 0 0 0)
(1.18374e+07 1.20012e+06 1.14743e+06 0 0 0)
(1.23297e+07 1.00859e+06 1.0812e+06 0 0 0)
(1.22899e+07 824660 924103 0 0 0)
(1.15285e+07 664419 648211 0 0 0)
(9.17977e+06 548872 256886 0 0 0)
(-663381 388715 480620 0 0 0)
(1.40528e+06 600064 531799 0 0 0)
(2.89991e+06 661722 114763 0 0 0)
(733735 550473 -1.07361e+06 0 0 0)
(-2.25027e+06 730224 -1.63798e+06 0 0 0)
(-3.68227e+06 1.12881e+06 -1.58613e+06 0 0 0)
(-3.58532e+06 1.42273e+06 -1.28175e+06 0 0 0)
(-2.68982e+06 1.57071e+06 -957589 0 0 0)
(-1.53568e+06 1.62425e+06 -674496 0 0 0)
(-367604 1.61246e+06 -428780 0 0 0)
(734028 1.54852e+06 -208214 0 0 0)
(1.7356e+06 1.43765e+06 -17335.6 0 0 0)
(2.56713e+06 1.26838e+06 114781 0 0 0)
(3.02095e+06 999232 136999 0 0 0)
(2.50525e+06 530585 5644.82 0 0 0)
(-3.78401e+06 388301 -516592 0 0 0)
(-2.46004e+06 498095 -318710 0 0 0)
(-6120.45 491359 86589.2 0 0 0)
(-1.50146e+06 161220 -375145 0 0 0)
(-4.93262e+06 -61262.5 -901575 0 0 0)
(-8.26867e+06 -59035.5 -1.14627e+06 0 0 0)
(-1.07218e+07 48066.2 -1.19713e+06 0 0 0)
(-1.22731e+07 183788 -1.18893e+06 0 0 0)
(-1.31099e+07 323010 -1.18458e+06 0 0 0)
(-1.33797e+07 449367 -1.18938e+06 0 0 0)
(-1.3154e+07 553794 -1.18546e+06 0 0 0)
(-1.24635e+07 625541 -1.15251e+06 0 0 0)
(-1.1331e+07 633717 -1.07069e+06 0 0 0)
(-9.73802e+06 510481 -902097 0 0 0)
(-7.21692e+06 170726 -555403 0 0 0)
(-1.20014e+06 333069 45546.8 0 0 0)
(204400 154925 586820 0 0 0)
(2.59944e+06 268689 801191 0 0 0)
(3.5798e+06 172190 551046 0 0 0)
(3.07873e+06 6185.88 187555 0 0 0)
(1.92767e+06 -76632.9 -41855 0 0 0)
(744399 -59830.9 -134012 0 0 0)
(-249867 28982.1 -169145 0 0 0)
(-1.05636e+06 166856 -207475 0 0 0)
(-1.73473e+06 318789 -267941 0 0 0)
(-2.32347e+06 461466 -342214 0 0 0)
(-2.82257e+06 580502 -405930 0 0 0)
(-3.18396e+06 655596 -423949 0 0 0)
(-3.25456e+06 661893 -344511 0 0 0)
(-2.54572e+06 580409 -112544 0 0 0)
(-347258 -17728.2 -467112 0 0 0)
(496243 -50780.7 -401361 0 0 0)
(2.35955e+06 68639.2 -234833 0 0 0)
(4.00729e+06 72661 -225847 0 0 0)
(4.95294e+06 -37826 -269485 0 0 0)
(5.32093e+06 -153327 -231673 0 0 0)
(5.36701e+06 -221318 -83347.7 0 0 0)
(5.25569e+06 -231204 129310 0 0 0)
(5.03222e+06 -164702 353350 0 0 0)
(4.67767e+06 -58807.9 557367 0 0 0)
(4.17638e+06 60531.4 724145 0 0 0)
(3.5323e+06 187000 849917 0 0 0)
(2.79005e+06 313698 929479 0 0 0)
(2.03405e+06 436567 924581 0 0 0)
(1.29921e+06 546538 720800 0 0 0)
(-2.32499e+06 43656.5 -448365 0 0 0)
(-3.37877e+06 -90001.9 -500117 0 0 0)
(-3.69933e+06 -175261 -439599 0 0 0)
(-3.75652e+06 -312032 -439616 0 0 0)
(-3.82426e+06 -532330 -485727 0 0 0)
(-3.92388e+06 -748730 -503599 0 0 0)
(-3.99371e+06 -925151 -442762 0 0 0)
(-3.92333e+06 -1.05665e+06 -319830 0 0 0)
(-3.66327e+06 -1.05603e+06 -163707 0 0 0)
(-3.24351e+06 -981282 11325.6 0 0 0)
(-2.6686e+06 -867018 182051 0 0 0)
(-1.97237e+06 -701493 331746 0 0 0)
(-1.17682e+06 -483983 453167 0 0 0)
(-321153 -240828 492128 0 0 0)
(363342 119583 378236 0 0 0)
(-1.30897e+06 424828 206662 0 0 0)
(-2.25112e+06 318666 259736 0 0 0)
(-2.80547e+06 178169 214646 0 0 0)
(-3.25652e+06 -21598.2 103184 0 0 0)
(-3.5869e+06 -319061 -83810.3 0 0 0)
(-3.77458e+06 -566782 -302662 0 0 0)
(-3.96542e+06 -773301 -457750 0 0 0)
(-4.01527e+06 -1.01097e+06 -574779 0 0 0)
(-3.84925e+06 -1.03198e+06 -655660 0 0 0)
(-3.60241e+06 -984025 -690462 0 0 0)
(-3.15407e+06 -938854 -674071 0 0 0)
(-2.53882e+06 -829938 -641647 0 0 0)
(-1.77536e+06 -608902 -514756 0 0 0)
(-973933 -370043 -276045 0 0 0)
(-453101 343377 194006 0 0 0)
(518332 544241 274076 0 0 0)
(338553 414668 317464 0 0 0)
(624522 334115 244483 0 0 0)
(81350.1 171866 322500 0 0 0)
(-133314 -200666 249225 0 0 0)
(206918 -362450 78498.7 0 0 0)
(-82676.9 -440220 132315 0 0 0)
(-261064 -757339 46766.4 0 0 0)
(-50888.8 -600676 122269 0 0 0)
(-349447 -393918 -5305.68 0 0 0)
(-337487 -317204 66096.3 0 0 0)
(-70793.6 -176661 -41650.8 0 0 0)
(785103 241481 118260 0 0 0)
(1.135e+06 434452 286948 0 0 0)
(1.31004e+06 639376 100925 0 0 0)
(-3.24099e+06 -306424 -26137.6 0 0 0)
(-4.07728e+06 -520682 -83210.1 0 0 0)
(-3.30112e+06 -399530 -79102 0 0 0)
(-3.74699e+06 -426490 -125507 0 0 0)
(-3.91663e+06 -750660 -243803 0 0 0)
(-3.06479e+06 -652695 -253553 0 0 0)
(-3.44985e+06 -631380 -234442 0 0 0)
(-3.8884e+06 -875358 -288311 0 0 0)
(-3.00837e+06 -623601 -195632 0 0 0)
(-3.47654e+06 -484630 -114832 0 0 0)
(-3.70562e+06 -560829 -147158 0 0 0)
(-2.64536e+06 -249953 -53222.6 0 0 0)
(-2.96102e+06 -20118 75400.3 0 0 0)
(-2.84399e+06 -40253.3 27302.2 0 0 0)
(-1.30697e+06 227444 28571.3 0 0 0)
(0 -1.62049e+06 0 -612849 -26137.6 0)
(0 -2.03864e+06 0 -1.04136e+06 -83210.1 0)
(0 -1.65056e+06 0 -799061 -79102 0)
(0 -1.87349e+06 0 -852979 -125507 0)
(0 -1.95831e+06 0 -1.50132e+06 -243803 0)
(0 -1.53239e+06 0 -1.30539e+06 -253553 0)
(0 -1.72492e+06 0 -1.26276e+06 -234442 0)
(0 -1.9442e+06 0 -1.75072e+06 -288311 0)
(0 -1.50419e+06 0 -1.2472e+06 -195632 0)
(0 -1.73827e+06 0 -969261 -114832 0)
(0 -1.85281e+06 0 -1.12166e+06 -147158 0)
(0 -1.32268e+06 0 -499905 -53222.6 0)
(0 -1.48051e+06 0 -40236 75400.3 0)
(0 -1.42199e+06 0 -80506.7 27302.2 0)
(0 -653485 0 454888 28571.3 0)
(0 -1.81394e+06 0 702265 91175.9 0)
(0 -2.21564e+06 0 446921 -146538 0)
(0 -1.74193e+06 0 851467 -221449 0)
(0 -2.19547e+06 0 356362 -529898 0)
(0 -1.86771e+06 0 -841470 -852902 0)
(0 -1.56158e+06 0 -983173 -1.07259e+06 0)
(0 -1.96952e+06 0 -1.19642e+06 -1.01603e+06 0)
(0 -2.10368e+06 0 -1.55651e+06 -985581 0)
(0 -1.81808e+06 0 -1.31603e+06 -1.02318e+06 0)
(0 -2.40304e+06 0 -1.47647e+06 -857780 0)
(0 -2.29961e+06 0 -1.44584e+06 -734552 0)
(0 -1.89031e+06 0 -903991 -740740 0)
(0 -2.49745e+06 0 -1.07781e+06 -556602 0)
(0 -2.03516e+06 0 -842933 -387318 0)
(0 -1.1224e+06 0 -224055 -355665 0)
(0 -2.53739e+06 0 -673120 -362705 0)
(0 -2.55531e+06 0 -647465 -564592 0)
(0 -2.24112e+06 0 -371167 -797947 0)
(0 -3.27157e+06 0 -1.37246e+06 -849075 0)
(0 -2.61053e+06 0 -1.43307e+06 -821539 0)
(0 -2.27885e+06 0 -1.11845e+06 -951511 0)
(0 -3.38271e+06 0 -2.17192e+06 -927255 0)
(0 -2.8303e+06 0 -1.97043e+06 -781356 0)
(0 -2.53662e+06 0 -1.471e+06 -785350 0)
(0 -3.7292e+06 0 -2.42542e+06 -647261 0)
(0 -2.94369e+06 0 -1.84802e+06 -383790 0)
(0 -2.57436e+06 0 -1.06399e+06 -306126 0)
(0 -3.64839e+06 0 -1.90271e+06 -186209 0)
(0 -2.49892e+06 0 -1.16128e+06 8619.99 0)
(0 -1.52231e+06 0 -263779 -7111 0)
(0 -3.04754e+06 0 -1.37956e+06 -119442 0)
(0 -2.53086e+06 0 -991912 -106356 0)
(0 -2.39394e+06 0 -683130 -157460 0)
(0 -3.60696e+06 0 -1.887e+06 -177651 0)
(0 -2.51634e+06 0 -1.33189e+06 -103990 0)
(0 -2.38148e+06 0 -921175 -183174 0)
(0 -3.46114e+06 0 -2.13089e+06 -317400 0)
(0 -2.54953e+06 0 -1.58513e+06 -282142 0)
(0 -2.50826e+06 0 -1.20991e+06 -230320 0)
(0 -3.56011e+06 0 -2.11565e+06 -139124 0)
(0 -2.5365e+06 0 -1.15437e+06 106946 0)
(0 -2.52835e+06 0 -405353 290091 0)
(0 -3.22764e+06 0 -914557 364951 0)
(0 -1.87489e+06 0 -30463.4 403846 0)
(0 -1.31666e+06 0 389854 291000 0)
(0 -2.17292e+06 0 -322653 260904 0)
(0 -1.53084e+06 0 233127 332505 0)
(0 -1.87269e+06 0 137783 408646 0)
(0 -2.40399e+06 0 -469118 434887 0)
(0 -1.382e+06 0 266636 365496 0)
(0 -1.85825e+06 0 17001 20256.4 0)
(0 -1.96132e+06 0 -1.26744e+06 -586627 0)
(0 -1.45738e+06 0 -900737 -923761 0)
(0 -2.08206e+06 0 -1.24044e+06 -1.03606e+06 0)
(0 -2.2877e+06 0 -1.34576e+06 -885280 0)
(0 -1.63329e+06 0 -560251 -847279 0)
(0 -2.36096e+06 0 -904706 -789805 0)
(0 -2.12381e+06 0 -755923 -577914 0)
(0 -1.0509e+06 0 174748 -579959 0)
(0 -1.44668e+06 0 -397412 -535043 0)
(0 -1.12106e+06 0 -388278 -359987 0)
(0 -685636 0 210340 -624130 0)
(0 -1.95192e+06 0 -919667 -715491 0)
(0 -1.5712e+06 0 -855260 -528386 0)
(0 -713839 0 71897.1 -588728 0)
(0 -2.04882e+06 0 -919460 -722842 0)
(0 -1.50061e+06 0 -718630 -690496 0)
(0 -932469 0 110983 -860643 0)
(0 -2.50885e+06 0 -1.14742e+06 -962951 0)
(0 -1.96297e+06 0 -823232 -758536 0)
(0 -1.24104e+06 0 89784 -731781 0)
(0 -2.68646e+06 0 -1.09254e+06 -666663 0)
(0 -1.73309e+06 0 -493149 -378700 0)
(0 -709600 0 624883 -313787 0)
(0 -1.8176e+06 0 -465125 -264286 0)
(0 -502654 0 28046.9 -96321.3 0)
(0 -162630 0 498828 -218639 0)
(0 -1.83168e+06 0 -1.0631e+06 -223662 0)
(0 -950364 0 -743082 -47006.7 0)
(0 -279546 0 -52602.3 -28078.3 0)
(0 -1.82423e+06 0 -1.1498e+06 -17687.5 0)
(0 -970336 0 -543067 10096.8 0)
(0 -617017 0 -1136.59 -138707 0)
(0 -2.17024e+06 0 -1.31256e+06 -242350 0)
(0 -1.41272e+06 0 -873647 -207670 0)
(0 -977852 0 -477245 -190498 0)
(0 -2.1153e+06 0 -1.42125e+06 -24413.3 0)
(0 -1.07048e+06 0 -578625 181935 0)
(0 -529002 0 285394 264211 0)
(0 -1.27908e+06 0 -265954 268611 0)
(0 185841 0 513905 389108 0)
(0 193378 0 267919 501720 0)
(0 -754380 0 -640699 699579 0)
(0 72807.3 0 -188219 767615 0)
(0 156702 0 -173403 775361 0)
(0 -596532 0 -566324 880818 0)
(0 109662 0 39379.7 700489 0)
(0 -212856 0 -77130.2 399144 0)
(0 -771665 0 -1.12505e+06 -178567 0)
(0 -353284 0 -721292 -444145 0)
(0 -655611 0 -1.16773e+06 -665735 0)
(0 -681851 0 -1.15501e+06 -465675 0)
(0 67290.9 0 -282705 -367283 0)
(0 -224585 0 -511580 -460367 0)
(0 -144529 0 -329049 -255247 0)
(0 1.10398e+06 0 779098 -90687.9 0)
(0 597633 0 -136739 -248624 0)
(0 681808 0 -239574 -48621.5 0)
(0 1.40411e+06 0 482097 -10869.2 0)
(0 676500 0 -187504 -142782 0)
(0 733670 0 -18965.4 -1714.33 0)
(0 1.36847e+06 0 864339 -79341.2 0)
(0 407709 0 171309 -353954 0)
(0 491524 0 139633 -381488 0)
(0 1.05604e+06 0 755812 -484054 0)
(0 121058 0 -85235.2 -621184 0)
(0 487187 0 115431 -434863 0)
(0 1.32439e+06 0 954235 -356086 0)
(0 499620 0 346828 -360523 0)
(0 667630 0 588802 -147447 0)
(0 1.96828e+06 0 1.55833e+06 24833.4 0)
(0 1.31634e+06 0 746722 30043.2 0)
(0 1.68553e+06 0 845878 155811 0)
(0 2.40502e+06 0 1.34988e+06 144804 0)
(0 1.42603e+06 0 572926 115894 0)
(0 1.60393e+06 0 636423 137253 0)
(0 2.15786e+06 0 1.08042e+06 29917.7 0)
(0 1.0921e+06 0 417475 -46919 0)
(0 1.21417e+06 0 451685 -112565 0)
(0 1.69854e+06 0 680114 -218391 0)
(0 756335 0 68033.3 -175150 0)
(0 1.03989e+06 0 273684 -107725 0)
(0 1.67066e+06 0 632926 -98479 0)
(0 1.02578e+06 0 369884 78997.6 0)
(0 974811 0 615600 151694 0)
(0 1.92899e+06 0 1.12436e+06 322357 0)
(0 1.74688e+06 0 850960 667960 0)
(0 2.04483e+06 0 983767 753700 0)
(0 2.50259e+06 0 929722 681862 0)
(0 1.93754e+06 0 586757 809046 0)
(0 1.96156e+06 0 615061 731564 0)
(0 2.20232e+06 0 466933 541386 0)
(0 1.603e+06 0 165978 586759 0)
(0 1.60865e+06 0 -12551.6 393255 0)
(0 1.74601e+06 0 -53550.7 357675 0)
(0 1.18942e+06 0 -176502 214376 0)
(0 1.33786e+06 0 230197 227691 0)
(0 1.51033e+06 0 160739 44217.7 0)
(0 1.48622e+06 0 441571 166755 0)
(0 1.3056e+06 0 858032 238087 0)
(0 1.71085e+06 0 884189 222226 0)
(0 2.17965e+06 0 1.17163e+06 526549 0)
(0 2.54886e+06 0 1.6021e+06 696677 0)
(0 2.76148e+06 0 1.55266e+06 534218 0)
(0 2.6102e+06 0 1.59053e+06 578328 0)
(0 2.70452e+06 0 1.83136e+06 587676 0)
(0 2.76014e+06 0 1.72305e+06 334998 0)
(0 2.43161e+06 0 1.57125e+06 282098 0)
(0 2.52011e+06 0 1.63062e+06 249574 0)
(0 2.62446e+06 0 1.5146e+06 63151.2 0)
(0 2.29396e+06 0 1.30973e+06 64686 0)
(0 2.51646e+06 0 1.52118e+06 137718 0)
(0 2.6814e+06 0 1.75928e+06 47791.7 0)
(0 2.38758e+06 0 1.75591e+06 65178.9 0)
(0 2.14069e+06 0 1.70907e+06 93317.6 0)
(0 2.4568e+06 0 2.04166e+06 196760 0)
(0 2.7324e+06 0 2.29251e+06 309725 0)
(0 3.16112e+06 0 2.54572e+06 395750 0)
(0 3.45078e+06 0 2.84853e+06 355938 0)
(0 3.00439e+06 0 2.62991e+06 280250 0)
(0 3.1454e+06 0 2.55e+06 211554 0)
(0 3.28969e+06 0 2.70481e+06 108895 0)
(0 2.66746e+06 0 2.20437e+06 -49201.7 0)
(0 2.81224e+06 0 1.95764e+06 -158916 0)
(0 3.00301e+06 0 2.08782e+06 -176080 0)
(0 2.40952e+06 0 1.61745e+06 -218502 0)
(0 2.66523e+06 0 1.52411e+06 -172003 0)
(0 2.78507e+06 0 2.05236e+06 -8487.61 0)
(0 2.15366e+06 0 1.80469e+06 4035.95 0)
(0 1.93088e+06 0 1.42084e+06 -27379 0)
(0 2.19063e+06 0 1.8977e+06 140586 0)
(0 2.0882e+06 0 1.91721e+06 135462 0)
(0 2.4473e+06 0 1.91824e+06 120887 0)
(0 2.75642e+06 0 2.22406e+06 259536 0)
(0 2.1371e+06 0 1.81647e+06 179143 0)
(0 2.2976e+06 0 1.53011e+06 35187.1 0)
(0 2.44944e+06 0 1.6438e+06 89838.4 0)
(0 1.73637e+06 0 1.0409e+06 -47676.2 0)
(0 1.93586e+06 0 707688 -222059 0)
(0 2.0581e+06 0 732818 -126670 0)
(0 1.44792e+06 0 67568.2 -156165 0)
(0 1.76375e+06 0 292322 131234 0)
(0 1.51043e+06 0 1.22264e+06 485005 0)
(0 1.09069e+06 0 1.2349e+06 640419 0)
(0 1.08109e+06 0 1.07088e+06 441876 0)
(0 952670 0 1.21256e+06 397907 0)
(0 885639 0 1.38144e+06 610183 0)
(0 1.15597e+06 0 1.62237e+06 595303 0)
(0 1.35359e+06 0 1.75626e+06 667949 0)
(0 1.05277e+06 0 1.51859e+06 718370 0)
(0 1.37586e+06 0 1.78579e+06 618202 0)
(0 1.39995e+06 0 1.73671e+06 592860 0)
(0 1.03422e+06 0 1.32927e+06 588568 0)
(0 1.49484e+06 0 1.70262e+06 482233 0)
(0 1.39911e+06 0 1.50115e+06 447279 0)
(0 1.02804e+06 0 989966 494428 0)
(0 1.61918e+06 0 1.59206e+06 524008 0)
(0 1.29705e+06 0 1.47565e+06 538286 0)
(0 957728 0 1.05612e+06 546939 0)
(0 1.49284e+06 0 1.56334e+06 401837 0)
(-1.90534e+06 -606280 -397907 0 0 0)
(-1.77128e+06 -690718 -610183 0 0 0)
(-2.31193e+06 -811187 -595303 0 0 0)
(-2.70719e+06 -878129 -667949 0 0 0)
(-2.10555e+06 -759295 -718370 0 0 0)
(-2.75173e+06 -892893 -618202 0 0 0)
(-2.79991e+06 -868355 -592860 0 0 0)
(-2.06845e+06 -664633 -588568 0 0 0)
(-2.98969e+06 -851310 -482233 0 0 0)
(-2.79823e+06 -750577 -447279 0 0 0)
(-2.05609e+06 -494983 -494428 0 0 0)
(-3.23835e+06 -796032 -524008 0 0 0)
(-2.5941e+06 -737823 -538286 0 0 0)
(-1.91546e+06 -528060 -546939 0 0 0)
(-2.98569e+06 -781671 -401837 0 0 0)
(1.58723e+06 -93938.1 82356.8 0 0 0)
(1.90265e+06 -358611 -4098.24 0 0 0)
(1.65364e+06 -494515 12611.4 0 0 0)
(1.76764e+06 -515837 -518.9 0 0 0)
(2.10419e+06 -475056 -96713.3 0 0 0)
(2.13243e+06 -501820 -31372.5 0 0 0)
(2.48626e+06 -402800 48195.5 0 0 0)
(2.95825e+06 -200304 70799 0 0 0)
(2.78258e+06 -217452 164403 0 0 0)
(3.12001e+06 -65852.7 223226 0 0 0)
(3.53704e+06 220006 216368 0 0 0)
(2.98932e+06 90926.2 157574 0 0 0)
(3.25312e+06 79292.9 54961.3 0 0 0)
(3.58985e+06 211768 22747.6 0 0 0)
(2.5093e+06 36593.4 18272.7 0 0 0)
(-480233 -1.00677e+06 49381.7 0 0 0)
(-1.30563e+06 -1.55696e+06 2210.55 0 0 0)
(-2.18253e+06 -1.88262e+06 -22056.9 0 0 0)
(-777131 -1.69409e+06 -23078.3 0 0 0)
(-1.19514e+06 -1.80616e+06 -56838.3 0 0 0)
(-1.86179e+06 -1.88412e+06 -15443.1 0 0 0)
(-291230 -1.51773e+06 56754 0 0 0)
(-577369 -1.39861e+06 138841 0 0 0)
(-1.21196e+06 -1.33435e+06 253878 0 0 0)
(180104 -903196 300461 0 0 0)
(-293868 -695641 314262 0 0 0)
(-1.2992e+06 -710356 240712 0 0 0)
(-325990 -588897 -19408 0 0 0)
(-794916 -763486 -169055 0 0 0)
(-1.60728e+06 -812956 -100524 0 0 0)
(-1.38745e+06 -1.30343e+06 -150906 0 0 0)
(-1.59152e+06 -1.8856e+06 -175057 0 0 0)
(-1.60226e+06 -2.16254e+06 -137585 0 0 0)
(-1.21347e+06 -2.11393e+06 -37998 0 0 0)
(-952951 -2.10539e+06 122164 0 0 0)
(-732965 -2.02564e+06 259815 0 0 0)
(-168845 -1.69651e+06 431978 0 0 0)
(181849 -1.41673e+06 649828 0 0 0)
(407610 -1.12446e+06 810299 0 0 0)
(806305 -665894 941488 0 0 0)
(767729 -350501 1.00986e+06 0 0 0)
(372740 -215839 844961 0 0 0)