/*--------------------------------*- C++ -*----------------------------------*\
| =========                 |                                                 |
| \\      /  F ield         | OpenFOAM: The Open Source CFD Toolbox           |
|  \\    /   O peration     | Version:  v2012                                 |
|   \\  /    A nd           | Website:  www.openfoam.com                      |
|    \\/     M anipulation  |                                                 |
\*---------------------------------------------------------------------------*/
FoamFile
{
    version     2.0;
    format      ascii;
    class       pointScalarField;
    location    "1";
    object      pEpsilonEq;
}
// * * * * * * * * * * * * * * * * * * * * * * * * * * * * * * * * * * * * * //

dimensions      [0 0 0 0 0 0 0];


internalField   nonuniform List<scalar> 
4913
(
0
0
0
0
0
0
0
0
0
0
0
0
0
0
0
0
0
0
0
0
0
0
0
0
0
0
0
0
0
0
0
0
0
0
0
0
0
0
0
0
0
0
0
0
0
0
0
0
0
0
0
0
0
0
0
0
0
0
0
0
0
0
0
0
0
0
0
0
0
0
0
0
0
0
0
0
0
0
0
0
0
0
0
0
0
0
0
0
0
0
0
0
0
0
0
0
0
0
0
0
0
0
0
0
0
0
0
0
0
0
0
0
0
0
0
0
0
0
0
0
0
0
0
0
0
0
0
0
0
0
0
0
0
0
0
0
0
0
0
0
0
0
0
0
0
0
0
0
0
0
0
0
0
0
0
0
0
0
0
0
0
0
0
0
0
0
0
0
0
0
0
0
0
0
0
0
0
0
0
0
0
0
0
0
0
0
0
0
2.71375e+06
6.14512e+06
7.36863e+06
5.81714e+06
2.97577e+06
735058
449036
573668
1.66556e+06
3.75095e+06
5.85367e+06
6.43442e+06
4.63419e+06
1.92491e+06
1.20658e+06
2.27584e+06
890407
2.47619e+06
4.98978e+06
5.62594e+06
4.48485e+06
2.76648e+06
1.67042e+06
1.11862e+06
1.29298e+06
2.34419e+06
4.00805e+06
5.32974e+06
5.26256e+06
3.33234e+06
1.01001e+06
1.05651e+06
658661
756171
2.07664e+06
3.14633e+06
3.34996e+06
2.72727e+06
1.89212e+06
1.30617e+06
1.21256e+06
1.10372e+06
1.11819e+06
1.27175e+06
1.11602e+06
2.502e+06
3.55724e+06
4.08494e+06
4.19485e+06
3.62982e+06
2.9033e+06
2.40139e+06
2.12547e+06
1.85494e+06
1.47572e+06
1.43798e+06
1.8795e+06
2.09204e+06
1.60732e+06
690101
886617
1.1362e+06
1.5426e+06
2.96562e+06
4.90274e+06
6.46095e+06
6.23952e+06
4.67912e+06
2.96704e+06
2.00428e+06
1.58635e+06
1.36919e+06
2.06892e+06
2.81586e+06
2.60246e+06
1.84128e+06
608561
1.91533e+06
3.52258e+06
2.8459e+06
1.39049e+06
4.19938e+06
6.91516e+06
7.19283e+06
5.60754e+06
3.62125e+06
2.06624e+06
691725
534705
727086
4.18048e+06
6.61986e+06
6.08765e+06
2.45198e+06
2.52574e+06
5.81558e+06
5.61272e+06
2.33061e+06
2.2268e+06
5.5099e+06
6.28148e+06
5.06047e+06
3.0078e+06
473056
1.24802e+06
871101
2.45199e+06
6.16329e+06
8.78232e+06
7.91462e+06
3.30053e+06
2.96339e+06
7.27835e+06
7.65759e+06
4.50746e+06
351043
2.76874e+06
3.62277e+06
2.65719e+06
719829
2.33417e+06
3.48397e+06
2.60429e+06
1.27263e+06
5.59176e+06
8.67894e+06
7.99286e+06
3.38389e+06
2.94823e+06
7.43225e+06
8.22192e+06
5.77708e+06
2.50897e+06
742688
962693
794804
2.07463e+06
3.56793e+06
4.48686e+06
3.69711e+06
1.2954e+06
4.01508e+06
6.86037e+06
6.44278e+06
2.68344e+06
2.4262e+06
6.0657e+06
6.74591e+06
4.87129e+06
2.22118e+06
654610
625183
1.09453e+06
1.71932e+06
2.90377e+06
3.98816e+06
3.81027e+06
2.36862e+06
2.32108e+06
3.81109e+06
3.76297e+06
1.77162e+06
1.23667e+06
2.84916e+06
2.38265e+06
1.4703e+06
1.24851e+06
967416
1.0521e+06
1.0853e+06
1.396e+06
2.02029e+06
2.90503e+06
3.4439e+06
2.91495e+06
1.6112e+06
834213
1.75197e+06
2.1117e+06
1.7168e+06
942176
1.36587e+06
1.29096e+06
1.47015e+06
3.09393e+06
3.95801e+06
3.47096e+06
3.81039e+06
3.34617e+06
1.90503e+06
850164
561460
1.29031e+06
1.286e+06
1.19694e+06
786148
1.36329e+06
1.63594e+06
733373
578187
693634
936686
831264
1.57998e+06
1.64301e+06
827701
591255
646154
1.04738e+06
929295
1.90466e+06
2.1369e+06
2.99489e+06
3.61152e+06
2.53992e+06
1.39869e+06
594674
635017
1.3572e+06
2.4446e+06
2.35954e+06
2.06181e+06
3.08319e+06
2.76297e+06
1.40772e+06
3.09803e+06
4.33431e+06
4.98967e+06
5.33936e+06
5.4486e+06
5.33571e+06
5.00546e+06
4.45033e+06
3.6322e+06
2.45194e+06
1.04061e+06
1.4271e+06
2.65152e+06
3.93058e+06
4.24583e+06
2.62431e+06
2.35853e+06
1.78319e+06
1.17975e+06
586009
277096
792241
1.36658e+06
1.68127e+06
1.05511e+06
1.15422e+06
1.63801e+06
1.60948e+06
1.36613e+06
1.20496e+06
1.0511e+06
1.3731e+06
1.53696e+06
1.57789e+06
1.5151e+06
1.34926e+06
1.07956e+06
939111
1.01221e+06
971575
787582
998663
1.19975e+06
1.23186e+06
1.05708e+06
2.76951e+06
3.3681e+06
3.43471e+06
3.2613e+06
2.94017e+06
2.48899e+06
1.69398e+06
1.31247e+06
1.46054e+06
1.68659e+06
1.87114e+06
2.05899e+06
2.2932e+06
2.46921e+06
2.25589e+06
983731
830668
881330
1.10603e+06
1.35669e+06
1.57799e+06
1.08025e+06
945501
971342
992902
1.08764e+06
1.16645e+06
1.20254e+06
1.21985e+06
1.15244e+06
2.12217e+06
2.11629e+06
1.6647e+06
1.17444e+06
973167
1.67166e+06
2.14025e+06
2.27799e+06
2.16883e+06
1.88158e+06
1.53374e+06
1.19447e+06
893749
697979
607290
4.73896e+06
5.15088e+06
4.33871e+06
2.77927e+06
1.53064e+06
2.45638e+06
3.86547e+06
5.34313e+06
6.59789e+06
7.52467e+06
8.12115e+06
8.39522e+06
8.31714e+06
7.76004e+06
6.15972e+06
839672
1.31715e+06
2.08301e+06
1.47653e+06
2.55711e+06
3.32861e+06
3.25615e+06
2.77988e+06
2.27427e+06
1.94214e+06
1.86936e+06
2.02361e+06
2.25646e+06
2.32645e+06
1.77901e+06
2.63073e+06
1.77649e+06
576129
1.10646e+06
3.44999e+06
5.66954e+06
7.28053e+06
8.29913e+06
8.85421e+06
9.03984e+06
8.89856e+06
8.44586e+06
7.68939e+06
6.60142e+06
4.85784e+06
889285
713943
1.98879e+06
2.47789e+06
2.06389e+06
1.28906e+06
524403
258872
768422
1.25248e+06
1.68506e+06
2.05179e+06
2.30615e+06
2.33453e+06
1.82931e+06
587314
572427
1.5982e+06
2.68554e+06
3.31688e+06
3.56176e+06
3.58841e+06
3.51712e+06
3.38488e+06
3.18489e+06
2.90794e+06
2.56031e+06
2.1778e+06
1.79799e+06
1.35691e+06
1.63495e+06
2.32768e+06
2.52604e+06
2.58055e+06
2.68186e+06
2.81578e+06
2.91399e+06
2.90967e+06
2.73622e+06
2.44127e+06
2.05221e+06
1.59118e+06
1.09619e+06
667900
518162
1.02912e+06
1.57403e+06
1.89785e+06
2.17442e+06
2.42141e+06
2.62348e+06
2.83996e+06
2.99478e+06
2.92888e+06
2.77388e+06
2.49048e+06
2.08136e+06
1.4995e+06
840091
546479
783898
643883
633945
425441
380007
449895
533640
893284
708637
511083
436582
214831
608562
966436
1.14952e+06
2.18964e+06
2.78554e+06
2.25043e+06
2.55019e+06
2.76556e+06
2.19735e+06
2.42782e+06
2.8022e+06
2.14287e+06
2.38798e+06
2.55953e+06
1.78809e+06
1.97607e+06
1.89682e+06
910632
1.91551e+06
2.45614e+06
1.98106e+06
2.2415e+06
2.48884e+06
1.9935e+06
2.17925e+06
2.55205e+06
1.93885e+06
2.11279e+06
2.27272e+06
1.56444e+06
1.71197e+06
1.64316e+06
813907
2.14882e+06
2.58124e+06
2.10556e+06
2.61871e+06
2.43633e+06
2.28361e+06
2.68042e+06
2.8762e+06
2.56375e+06
3.10635e+06
2.94948e+06
2.42056e+06
3.04068e+06
2.4573e+06
1.36773e+06
2.99353e+06
3.05245e+06
2.75808e+06
4.00865e+06
3.30138e+06
2.94743e+06
4.30115e+06
3.63599e+06
3.21921e+06
4.66001e+06
3.64253e+06
3.07644e+06
4.40487e+06
2.98758e+06
1.76661e+06
3.63981e+06
2.99879e+06
2.80744e+06
4.35564e+06
3.04063e+06
2.82556e+06
4.25735e+06
3.14479e+06
3.01825e+06
4.34906e+06
3.03083e+06
2.95104e+06
3.79994e+06
2.21468e+06
1.57858e+06
2.53623e+06
1.81555e+06
2.21519e+06
2.83822e+06
1.66021e+06
2.14588e+06
2.51034e+06
2.08094e+06
2.80981e+06
2.97119e+06
2.15721e+06
2.93729e+06
2.59102e+06
1.39089e+06
1.80066e+06
1.38401e+06
1.07974e+06
2.47759e+06
1.99722e+06
1.06951e+06
2.5825e+06
1.96664e+06
1.46711e+06
3.19593e+06
2.49119e+06
1.66468e+06
3.27808e+06
2.07463e+06
988031
2.14341e+06
591270
457813
2.24553e+06
1.20524e+06
326306
2.24166e+06
1.17755e+06
730251
2.66907e+06
1.74865e+06
1.19354e+06
2.62003e+06
1.31181e+06
708803
1.51955e+06
604400
646060
1.26245e+06
899142
920697
1.28509e+06
819128
524858
1.1828e+06
812810
1.33044e+06
1.22554e+06
470553
682753
403536
1.3805e+06
752960
805281
1.65292e+06
808091
847265
1.68445e+06
633816
724457
1.43292e+06
732981
757978
1.70658e+06
748059
881690
2.49912e+06
1.5998e+06
2.0343e+06
2.92403e+06
1.69565e+06
1.90663e+06
2.59393e+06
1.29253e+06
1.43986e+06
2.02877e+06
897599
1.22089e+06
1.97799e+06
1.2133e+06
1.21083e+06
2.37944e+06
2.23282e+06
2.60051e+06
3.05854e+06
2.45584e+06
2.45194e+06
2.63716e+06
1.97419e+06
1.91223e+06
2.0583e+06
1.40051e+06
1.57454e+06
1.74801e+06
1.75182e+06
1.63572e+06
2.07749e+06
2.70449e+06
3.23267e+06
3.40876e+06
3.26412e+06
3.42107e+06
3.40984e+06
3.01446e+06
3.11974e+06
3.1951e+06
2.79004e+06
3.08174e+06
3.31137e+06
2.99611e+06
2.72394e+06
3.15468e+06
3.52398e+06
4.05126e+06
4.4331e+06
3.90049e+06
4.01759e+06
4.20675e+06
3.41321e+06
3.50455e+06
3.74203e+06
2.99456e+06
3.24702e+06
3.4949e+06
2.76259e+06
2.42266e+06
2.83291e+06
2.73354e+06
3.10493e+06
3.52401e+06
2.75661e+06
2.84268e+06
3.03503e+06
2.12239e+06
2.29893e+06
2.43059e+06
1.68221e+06
2.05151e+06
2.00497e+06
1.67653e+06
1.52589e+06
1.44037e+06
1.54609e+06
1.85041e+06
2.09969e+06
1.78628e+06
2.10972e+06
2.10293e+06
1.63504e+06
2.1396e+06
1.96934e+06
1.47332e+06
2.23344e+06
1.89664e+06
1.45519e+06
2.06712e+06
1.52141e+06
1.58964e+06
1.93014e+06
2.20914e+06
1.85126e+06
2.22214e+06
2.22671e+06
1.71826e+06
2.29105e+06
2.12083e+06
1.59107e+06
2.42319e+06
2.02559e+06
1.54962e+06
2.23426e+06
1.06794e+06
1.33432e+06
1.24162e+06
1.32041e+06
1.51037e+06
1.53561e+06
1.72243e+06
1.98737e+06
1.88157e+06
2.09729e+06
2.3848e+06
2.00392e+06
2.17161e+06
2.40583e+06
1.67354e+06
1.20715e+06
1.99745e+06
2.61599e+06
2.02379e+06
2.23355e+06
2.50482e+06
1.76446e+06
1.66793e+06
1.7643e+06
1.10565e+06
902930
1.22484e+06
714235
1.04698e+06
1.42928e+06
1.77515e+06
2.43049e+06
2.7206e+06
2.5719e+06
2.51669e+06
2.40826e+06
2.02461e+06
1.80385e+06
1.62333e+06
1.43598e+06
1.33623e+06
1.03721e+06
542236
1.20206e+06
1.37086e+06
2.73082e+06
4.04396e+06
4.9209e+06
5.57632e+06
6.01742e+06
6.22984e+06
6.25677e+06
6.0452e+06
5.58023e+06
4.90036e+06
3.92877e+06
2.68487e+06
1.36453e+06
519597
1.2897e+06
2.52231e+06
3.45298e+06
3.81745e+06
3.93416e+06
3.87262e+06
3.67215e+06
3.37281e+06
2.96153e+06
2.45668e+06
1.92799e+06
1.47298e+06
1.34015e+06
1.47641e+06
1.41987e+06
995961
996181
2.15223e+06
3.35219e+06
4.42165e+06
5.34126e+06
6.09322e+06
6.64273e+06
6.96624e+06
7.05405e+06
6.89341e+06
6.45799e+06
5.69542e+06
4.5469e+06
3.07093e+06
1.56692e+06
752866
2.81333e+06
3.37005e+06
3.25837e+06
2.87937e+06
2.38776e+06
1.83826e+06
1.2849e+06
850806
828766
1.26244e+06
1.87611e+06
2.53108e+06
3.01677e+06
2.74014e+06
1.39439e+06
301634
401841
2.09959e+06
3.86009e+06
5.43287e+06
6.76365e+06
7.81456e+06
8.55739e+06
8.98069e+06
9.08731e+06
8.87823e+06
8.31463e+06
7.24571e+06
5.1995e+06
654159
1.2814e+06
1.00799e+06
1.91214e+06
2.43715e+06
2.53138e+06
2.40158e+06
2.13714e+06
1.77812e+06
1.36362e+06
946113
628721
627475
934110
1.21541e+06
3.00444e+06
2.84168e+06
1.68248e+06
681142
885384
1.19094e+06
1.74384e+06
2.43481e+06
3.10156e+06
3.67648e+06
4.12044e+06
4.40894e+06
4.51534e+06
4.35166e+06
3.52055e+06
716367
835835
699940
488653
41469.4
334951
770530
1.06008e+06
1.22954e+06
1.36077e+06
1.4426e+06
1.45871e+06
1.3916e+06
1.23104e+06
1.00172e+06
1.23291e+06
1.67791e+06
1.71082e+06
1.52476e+06
1.26628e+06
667179
1.06638e+06
1.65263e+06
2.07252e+06
2.47905e+06
2.82844e+06
3.08777e+06
3.20837e+06
3.09352e+06
2.48002e+06
3.79747e+06
4.16105e+06
3.58074e+06
2.65547e+06
1.6907e+06
890644
843273
1.88751e+06
2.71784e+06
3.31247e+06
3.72968e+06
3.97937e+06
4.02696e+06
3.77449e+06
2.90276e+06
1.22885e+06
1.25528e+06
1.36062e+06
1.57889e+06
1.76098e+06
1.70223e+06
1.31421e+06
946109
883444
702302
863731
1.33993e+06
1.91173e+06
2.48558e+06
2.75715e+06
1.14364e+06
1.19755e+06
1.27376e+06
1.44742e+06
1.60755e+06
1.58533e+06
1.30127e+06
917248
896934
792382
880011
1.22236e+06
1.67967e+06
2.15818e+06
2.38967e+06
1.95317e+06
2.23437e+06
1.76942e+06
1.24727e+06
1.14076e+06
961017
835257
1.95415e+06
2.23671e+06
2.00238e+06
1.60176e+06
1.14074e+06
746260
834733
1.33304e+06
4.67367e+06
5.06624e+06
3.95142e+06
2.37163e+06
1.0849e+06
627335
2.55102e+06
3.956e+06
4.67798e+06
5.01656e+06
5.11261e+06
4.98536e+06
4.59518e+06
3.83024e+06
2.46253e+06
6.45091e+06
6.81992e+06
5.23342e+06
3.00755e+06
1.36478e+06
2.31097e+06
4.21991e+06
5.94254e+06
7.27466e+06
8.2469e+06
8.87438e+06
9.12718e+06
8.9221e+06
8.04566e+06
5.86557e+06
5.82442e+06
6.14316e+06
4.45649e+06
2.12806e+06
1.13216e+06
2.45276e+06
4.45167e+06
6.4025e+06
8.07593e+06
9.40989e+06
1.03664e+07
1.0891e+07
1.08779e+07
1.00632e+07
7.61359e+06
3.70165e+06
3.94914e+06
2.25364e+06
583132
714125
1.00507e+06
2.38019e+06
3.90322e+06
5.31568e+06
6.53245e+06
7.50337e+06
8.17164e+06
8.43146e+06
8.02695e+06
6.20252e+06
1.65356e+06
1.5574e+06
1.29134e+06
2.68926e+06
3.15196e+06
2.93768e+06
2.36903e+06
1.63905e+06
881342
557060
1.20754e+06
2.03572e+06
2.78528e+06
3.22768e+06
2.83283e+06
554537
1.17734e+06
2.97598e+06
4.6936e+06
5.92559e+06
6.68475e+06
7.05233e+06
7.08566e+06
6.81305e+06
6.24576e+06
5.39024e+06
4.26473e+06
2.93737e+06
1.62348e+06
868156
444067
1.37542e+06
3.22551e+06
5.14647e+06
6.81147e+06
8.12098e+06
9.04967e+06
9.58746e+06
9.72315e+06
9.44134e+06
8.72156e+06
7.54059e+06
5.89581e+06
3.8806e+06
1.83318e+06
735093
266001
1.07192e+06
2.58005e+06
4.05868e+06
5.37315e+06
6.4578e+06
7.27171e+06
7.7799e+06
7.94405e+06
7.70931e+06
6.97533e+06
5.59449e+06
3.52973e+06
1.29087e+06
2.96824e+06
3.81804e+06
3.59393e+06
2.86666e+06
1.9026e+06
833745
307252
1.38037e+06
2.40049e+06
3.29326e+06
3.95686e+06
4.13208e+06
3.37783e+06
1.51121e+06
445859
5.8061e+06
7.9196e+06
8.62139e+06
8.6064e+06
8.12262e+06
7.28054e+06
6.14783e+06
4.78692e+06
3.27719e+06
1.76048e+06
934229
1.35339e+06
746085
1.57856e+06
2.15262e+06
7.35618e+06
9.95801e+06
1.10658e+07
1.14082e+07
1.11932e+07
1.05039e+07
9.39383e+06
7.91947e+06
6.14849e+06
4.13958e+06
2.06734e+06
714663
1.88846e+06
3.63231e+06
3.94002e+06
6.12729e+06
8.24189e+06
9.22034e+06
9.61395e+06
9.56086e+06
9.11066e+06
8.29449e+06
7.14754e+06
5.70051e+06
3.92723e+06
1.92344e+06
1.40192e+06
2.87265e+06
4.54548e+06
4.90009e+06
2.69648e+06
3.77183e+06
4.3451e+06
4.6546e+06
4.75637e+06
4.66539e+06
4.38401e+06
3.90126e+06
3.17789e+06
2.1398e+06
923493
1.25851e+06
2.30899e+06
3.41961e+06
3.69441e+06
3.68629e+06
4.89661e+06
3.96098e+06
2.20738e+06
480181
1.32087e+06
1.8142e+06
774400
2.83234e+06
6.20095e+06
7.59861e+06
5.84748e+06
2.43585e+06
1.34279e+06
2.39008e+06
1.07498e+06
879097
2.55868e+06
2.95766e+06
2.01659e+06
555746
1.42166e+06
2.01724e+06
1.49839e+06
955942
3.62878e+06
6.07033e+06
6.65727e+06
4.9809e+06
2.59557e+06
953350
1.37611e+06
966910
575843
1.05544e+06
994567
345016
564862
1.06349e+06
1.11255e+06
803407
998214
1.81725e+06
2.45554e+06
2.18739e+06
2.02125e+06
2.50883e+06
2.46918e+06
1.89343e+06
1.30319e+06
912185
603023
309356
1.38437e+06
1.57177e+06
1.74202e+06
2.03036e+06
1.86306e+06
1.31154e+06
1.00217e+06
1.02437e+06
952265
1.55078e+06
2.74988e+06
3.82831e+06
3.67194e+06
2.62509e+06
1.32431e+06
576714
1.54021e+06
1.49867e+06
853875
2.51542e+06
3.85373e+06
3.06881e+06
581943
2.33613e+06
3.8675e+06
3.59225e+06
1.77973e+06
1.56168e+06
3.25597e+06
3.34224e+06
2.05385e+06
494695
2.75866e+06
4.06096e+06
3.65494e+06
1.43583e+06
1.08021e+06
5.34868e+06
6.24256e+06
3.19477e+06
1.74726e+06
5.25958e+06
5.87353e+06
3.90271e+06
1.38641e+06
1.00559e+06
945397
682391
3.30977e+06
5.17388e+06
6.01071e+06
4.54838e+06
1.57083e+06
5.65996e+06
9.06425e+06
8.8605e+06
4.71573e+06
1.58632e+06
5.85739e+06
7.07197e+06
5.49529e+06
3.18947e+06
1.49521e+06
1.08576e+06
1.54467e+06
2.17917e+06
2.4926e+06
4.23657e+06
4.68293e+06
1.28048e+06
4.39964e+06
8.55031e+06
8.79121e+06
4.98402e+06
1.34426e+06
5.21598e+06
6.52086e+06
5.28972e+06
3.1701e+06
1.24872e+06
1.11614e+06
1.52145e+06
1.62232e+06
4.3407e+06
6.43371e+06
6.02003e+06
2.69032e+06
3.0337e+06
6.73578e+06
7.17773e+06
4.27412e+06
918952
3.4624e+06
4.27494e+06
3.21613e+06
1.49969e+06
1.08306e+06
1.3728e+06
1.47971e+06
1.66767e+06
3.41635e+06
5.14971e+06
5.18157e+06
3.395e+06
2.40249e+06
3.95686e+06
4.28999e+06
2.65824e+06
683284
1.65201e+06
1.92759e+06
1.18836e+06
563388
733572
1.14283e+06
1.13984e+06
1.38728e+06
2.27375e+06
3.65812e+06
4.66102e+06
4.10387e+06
2.6994e+06
1.31443e+06
1.51949e+06
1.91854e+06
1.91167e+06
1.38839e+06
540885
493653
1.18821e+06
2.57343e+06
3.44585e+06
3.61877e+06
5.05942e+06
5.93964e+06
4.45391e+06
3.02226e+06
1.62613e+06
646155
1.51596e+06
2.11265e+06
1.32676e+06
1.06548e+06
2.13652e+06
1.86267e+06
1.19319e+06
1.13292e+06
254782
1.29361e+06
1.83884e+06
1.52615e+06
1.23654e+06
683878
585002
1.13053e+06
1.47031e+06
1.44957e+06
799885
1.38612e+06
1.76443e+06
1.58514e+06
1.83086e+06
2.14504e+06
1.5275e+06
423989
865170
1.1976e+06
1.61832e+06
2.66443e+06
2.37599e+06
1.51252e+06
2.01821e+06
4.17494e+06
4.9497e+06
5.38228e+06
5.52638e+06
5.43525e+06
5.13679e+06
4.65758e+06
4.06329e+06
3.47185e+06
2.81763e+06
1.55647e+06
1.37272e+06
2.17338e+06
2.85389e+06
3.24405e+06
4.92641e+06
3.92823e+06
3.96656e+06
3.92516e+06
3.75912e+06
3.50044e+06
3.1847e+06
2.86002e+06
2.62476e+06
2.35221e+06
1.18531e+06
1.08031e+06
2.12213e+06
1.63982e+06
1.92468e+06
5.04175e+06
2.86424e+06
2.90858e+06
3.18769e+06
3.42589e+06
3.59586e+06
3.68466e+06
3.68027e+06
3.58096e+06
3.28228e+06
2.40904e+06
1.64149e+06
2.71644e+06
2.62364e+06
2.62415e+06
5.39978e+06
5.64246e+06
6.55019e+06
7.2177e+06
7.58301e+06
7.65356e+06
7.43978e+06
6.95733e+06
6.22906e+06
5.2397e+06
3.95273e+06
2.8639e+06
3.42583e+06
3.55425e+06
2.69012e+06
4.57395e+06
6.2972e+06
7.63462e+06
8.48759e+06
8.9124e+06
8.95258e+06
8.63738e+06
7.99364e+06
7.0547e+06
5.85031e+06
4.44068e+06
3.20966e+06
3.00578e+06
3.46313e+06
2.34115e+06
2.74794e+06
4.45778e+06
5.53341e+06
6.06529e+06
6.20001e+06
6.03751e+06
5.63865e+06
5.04654e+06
4.30624e+06
3.47861e+06
2.68354e+06
2.24178e+06
2.43243e+06
2.65047e+06
2.04446e+06
1.61794e+06
2.48096e+06
2.81763e+06
2.58013e+06
2.08402e+06
1.6035e+06
1.40911e+06
1.63734e+06
2.11657e+06
2.64752e+06
3.11335e+06
3.42632e+06
3.47182e+06
3.06236e+06
2.22919e+06
1.67056e+06
2.52161e+06
2.62754e+06
2.75429e+06
3.40139e+06
4.38427e+06
5.38034e+06
6.22241e+06
6.83701e+06
7.18357e+06
7.22548e+06
6.91767e+06
6.19327e+06
4.92513e+06
2.96528e+06
2.30141e+06
3.34269e+06
3.66144e+06
3.43659e+06
4.38028e+06
5.69546e+06
6.89875e+06
7.83155e+06
8.44187e+06
8.70759e+06
8.61016e+06
8.12993e+06
7.24533e+06
5.91286e+06
4.20359e+06
3.04833e+06
2.98844e+06
3.78577e+06
3.27303e+06
3.40135e+06
4.36857e+06
5.15944e+06
5.69171e+06
5.98396e+06
6.05081e+06
5.89488e+06
5.51684e+06
4.93155e+06
4.24802e+06
4.80105e+06
3.13091e+06
2.3029e+06
3.10923e+06
2.45492e+06
1.59896e+06
2.50192e+06
2.79336e+06
2.68771e+06
2.51322e+06
2.40744e+06
2.40105e+06
2.47339e+06
2.58579e+06
2.88396e+06
5.20925e+06
3.32609e+06
2.71744e+06
3.29407e+06
2.76174e+06
916070
1.71498e+06
2.45378e+06
2.96579e+06
3.65908e+06
4.40924e+06
5.06709e+06
5.55229e+06
5.79507e+06
5.72956e+06
5.81135e+06
4.13403e+06
4.27733e+06
3.99668e+06
3.13019e+06
1.91192e+06
1.94309e+06
2.96111e+06
3.44417e+06
4.39294e+06
5.37606e+06
6.18203e+06
6.74221e+06
6.99137e+06
6.78503e+06
5.56236e+06
4.00203e+06
4.49354e+06
3.92489e+06
2.91923e+06
1.80252e+06
1.2634e+06
2.49037e+06
3.17181e+06
3.47398e+06
4.09469e+06
4.60944e+06
4.95914e+06
5.09115e+06
4.87407e+06
3.73292e+06
2.06303e+06
2.40975e+06
2.07313e+06
1.59136e+06
1.24486e+06
1.04028e+06
1.18502e+06
1.90945e+06
2.17329e+06
2.16582e+06
2.16944e+06
2.16972e+06
2.16249e+06
2.09415e+06
1.96293e+06
1.44824e+06
1.91639e+06
2.35653e+06
2.63638e+06
2.79154e+06
2.80935e+06
2.67606e+06
2.48445e+06
2.35007e+06
2.12954e+06
1.59663e+06
1.35752e+06
1.60581e+06
2.14236e+06
2.24133e+06
4.21174e+06
5.64848e+06
6.07754e+06
6.10016e+06
5.84085e+06
5.34608e+06
4.66835e+06
3.8772e+06
2.98031e+06
2.50523e+06
2.09342e+06
1.56496e+06
2.31027e+06
3.32437e+06
3.55942e+06
5.19494e+06
6.14579e+06
6.27314e+06
6.0623e+06
5.61473e+06
4.98076e+06
4.22865e+06
3.43899e+06
2.65011e+06
1.98075e+06
1.66413e+06
1.16247e+06
1.76623e+06
2.49199e+06
2.67129e+06
4.53055e+06
3.61344e+06
3.07878e+06
2.63704e+06
2.26877e+06
2.01715e+06
1.95114e+06
2.07444e+06
2.27225e+06
2.34017e+06
1.94761e+06
1.09353e+06
1.7301e+06
2.08825e+06
1.54751e+06
4.00344e+06
1.89117e+06
1.84358e+06
2.63753e+06
3.40024e+06
3.99062e+06
4.39381e+06
4.59966e+06
4.59697e+06
4.35775e+06
3.80506e+06
2.86576e+06
2.29425e+06
2.67422e+06
1.84164e+06
3.85418e+06
3.78817e+06
5.02371e+06
6.20907e+06
7.036e+06
7.4848e+06
7.58664e+06
7.36676e+06
6.8481e+06
6.07266e+06
5.11167e+06
4.04216e+06
3.00535e+06
2.71941e+06
2.11937e+06
3.02532e+06
3.91508e+06
5.51642e+06
6.78878e+06
7.52589e+06
7.78669e+06
7.66162e+06
7.21464e+06
6.4928e+06
5.56299e+06
4.54969e+06
3.61643e+06
2.85005e+06
2.2403e+06
1.9385e+06
1.71625e+06
2.44374e+06
3.90544e+06
4.82072e+06
5.08688e+06
4.90717e+06
4.46782e+06
3.88567e+06
3.24243e+06
2.64831e+06
2.2829e+06
2.25226e+06
2.34808e+06
2.23621e+06
1.99223e+06
1.00759e+06
1.54474e+06
2.67354e+06
2.95192e+06
2.46463e+06
1.87523e+06
1.81926e+06
2.35321e+06
3.07583e+06
3.76369e+06
4.30461e+06
4.5898e+06
4.49065e+06
3.86709e+06
2.68502e+06
2.17082e+06
2.00216e+06
2.93279e+06
3.18203e+06
2.90697e+06
3.33937e+06
4.42561e+06
5.5593e+06
6.49253e+06
7.15545e+06
7.50505e+06
7.48307e+06
7.01356e+06
5.99689e+06
4.17687e+06
3.61498e+06
2.95711e+06
2.97803e+06
3.3418e+06
3.13135e+06
3.78893e+06
5.04225e+06
6.18023e+06
7.01503e+06
7.53783e+06
7.74663e+06
7.62346e+06
7.15318e+06
6.35326e+06
5.28018e+06
4.16376e+06
3.04224e+06
2.40005e+06
2.74624e+06
2.41291e+06
2.58776e+06
3.58217e+06
4.29774e+06
4.68119e+06
4.84318e+06
4.83157e+06
4.66147e+06
4.38079e+06
4.21146e+06
5.14281e+06
3.51073e+06
2.01167e+06
1.96516e+06
2.02085e+06
1.73996e+06
1.4576e+06
2.15418e+06
2.45428e+06
2.34267e+06
2.18096e+06
2.07395e+06
2.03165e+06
2.08489e+06
2.47498e+06
4.64987e+06
2.93801e+06
2.29503e+06
2.57111e+06
2.47401e+06
2.08578e+06
1.35161e+06
1.95766e+06
2.78341e+06
3.23439e+06
3.5945e+06
3.91552e+06
4.1468e+06
4.23716e+06
4.14931e+06
4.51048e+06
3.68471e+06
3.95494e+06
3.64615e+06
2.99997e+06
2.35095e+06
1.70855e+06
1.62976e+06
2.64924e+06
3.55525e+06
4.09144e+06
4.50427e+06
4.78495e+06
4.88757e+06
4.71936e+06
4.17734e+06
1.92904e+06
1.94475e+06
1.92362e+06
1.92502e+06
1.92674e+06
1.915e+06
1.6897e+06
1.06676e+06
1.01796e+06
742661
882452
1.25363e+06
1.40655e+06
1.41982e+06
1.51538e+06
2.42456e+06
2.47398e+06
2.41447e+06
2.32953e+06
2.2021e+06
2.03092e+06
1.71901e+06
1.18073e+06
1.3035e+06
1.56606e+06
1.50569e+06
1.76823e+06
1.73721e+06
1.57013e+06
1.50153e+06
1.93016e+06
2.44182e+06
2.52801e+06
2.44614e+06
2.24594e+06
1.95622e+06
1.571e+06
1.1573e+06
1.10351e+06
1.4787e+06
1.51962e+06
1.9651e+06
2.04891e+06
1.8095e+06
1.44386e+06
1.93913e+06
2.55585e+06
2.55575e+06
2.34979e+06
2.032e+06
1.66982e+06
1.33727e+06
1.21141e+06
1.48588e+06
1.73105e+06
1.11866e+06
990618
1.61769e+06
1.44172e+06
1.29128e+06
2.3671e+06
2.30043e+06
2.02198e+06
1.70963e+06
1.38301e+06
1.11938e+06
1.04074e+06
1.21629e+06
1.56765e+06
1.85806e+06
1.61486e+06
802805
1.12955e+06
760620
744482
2.66054e+06
1.61626e+06
969042
919873
1.13721e+06
1.36956e+06
1.57171e+06
1.73033e+06
1.82121e+06
1.79002e+06
1.52065e+06
1.00673e+06
1.34119e+06
1.38277e+06
546570
2.87948e+06
1.78247e+06
1.51625e+06
1.96511e+06
2.38751e+06
2.60853e+06
2.65658e+06
2.57368e+06
2.37532e+06
2.05316e+06
1.61516e+06
1.25327e+06
1.40276e+06
1.53906e+06
911636
2.84494e+06
2.46471e+06
2.53832e+06
3.07977e+06
3.48424e+06
3.57778e+06
3.41658e+06
3.09026e+06
2.66713e+06
2.20299e+06
1.78839e+06
1.61985e+06
1.86957e+06
2.07176e+06
1.32541e+06
1.99033e+06
2.26556e+06
2.39849e+06
3.02613e+06
3.49236e+06
3.55418e+06
3.30225e+06
2.87473e+06
2.38136e+06
1.92413e+06
1.63941e+06
1.64318e+06
1.89648e+06
2.19899e+06
2.03157e+06
1.29044e+06
1.59345e+06
1.52983e+06
2.0342e+06
2.52685e+06
2.58372e+06
2.35722e+06
2.04531e+06
1.78257e+06
1.65413e+06
1.6825e+06
1.77836e+06
1.79775e+06
1.73372e+06
1.68944e+06
1.0625e+06
1.47028e+06
1.76302e+06
1.72699e+06
2.03198e+06
1.97843e+06
1.84937e+06
1.87854e+06
2.04201e+06
2.24895e+06
2.42786e+06
2.49236e+06
2.31042e+06
1.76852e+06
1.09334e+06
1.57754e+06
1.81823e+06
1.69474e+06
1.77246e+06
2.22834e+06
2.30742e+06
2.28273e+06
2.47925e+06
2.74903e+06
2.9858e+06
3.15668e+06
3.22188e+06
3.10477e+06
2.72318e+06
2.05812e+06
2.14193e+06
2.52907e+06
2.24458e+06
1.31004e+06
1.47141e+06
1.99243e+06
2.01537e+06
2.27596e+06
2.63077e+06
2.94586e+06
3.20714e+06
3.3973e+06
3.483e+06
3.44138e+06
3.16313e+06
2.43268e+06
2.75867e+06
2.61451e+06
1.86981e+06
1.18629e+06
1.51946e+06
1.19825e+06
1.51577e+06
2.08733e+06
2.57355e+06
2.97561e+06
3.27737e+06
3.44647e+06
3.46478e+06
3.37668e+06
2.07545e+06
2.43622e+06
2.34655e+06
1.88839e+06
1.18841e+06
1.38684e+06
1.5209e+06
1.8341e+06
2.50057e+06
3.00823e+06
3.39776e+06
3.6508e+06
3.71602e+06
3.50188e+06
3.03982e+06
2.569e+06
2.76771e+06
2.95457e+06
2.93125e+06
2.76826e+06
2.56256e+06
2.12673e+06
1.38947e+06
1.15947e+06
1.32208e+06
1.25123e+06
1.22166e+06
1.33584e+06
1.44839e+06
1.64625e+06
2.34736e+06
1.7224e+06
2.1215e+06
2.46037e+06
2.69087e+06
2.90036e+06
2.95935e+06
1.93001e+06
862844
1.14704e+06
1.11992e+06
1.00201e+06
979267
752117
1.15836e+06
2.94694e+06
1.98572e+06
2.28909e+06
2.67717e+06
2.96811e+06
3.18524e+06
3.3021e+06
2.87695e+06
1.76795e+06
1.44773e+06
1.14677e+06
1.27259e+06
1.64449e+06
1.67038e+06
1.71459e+06
3.63905e+06
2.89094e+06
2.93426e+06
3.05715e+06
3.11386e+06
3.11428e+06
3.07098e+06
2.79945e+06
2.14689e+06
2.09927e+06
1.98906e+06
1.4246e+06
1.95914e+06
2.21241e+06
2.13315e+06
3.80669e+06
3.4549e+06
3.41069e+06
3.41618e+06
3.35553e+06
3.23831e+06
3.08544e+06
2.79383e+06
2.24421e+06
1.83667e+06
2.07685e+06
1.69895e+06
1.87567e+06
2.38254e+06
2.21177e+06
3.45852e+06
3.42819e+06
3.48228e+06
3.5762e+06
3.59072e+06
3.52714e+06
3.40845e+06
3.17312e+06
2.73264e+06
2.28493e+06
2.20416e+06
1.75687e+06
1.3067e+06
1.84382e+06
1.73914e+06
2.59155e+06
2.60524e+06
2.88246e+06
3.20477e+06
3.38902e+06
3.4348e+06
3.38109e+06
3.21484e+06
2.89745e+06
2.54511e+06
2.47072e+06
2.40225e+06
1.76423e+06
1.35601e+06
936960
1.83955e+06
1.6783e+06
2.15706e+06
2.66272e+06
2.94e+06
3.01152e+06
2.94553e+06
2.77896e+06
2.53703e+06
2.31837e+06
2.28446e+06
2.2927e+06
1.92381e+06
1.75887e+06
1.20054e+06
1.71686e+06
1.7886e+06
2.12484e+06
2.43169e+06
2.5721e+06
2.55709e+06
2.45395e+06
2.32635e+06
2.24454e+06
2.28548e+06
2.42286e+06
2.40916e+06
1.94809e+06
1.41194e+06
1.56535e+06
1.66759e+06
2.13274e+06
2.46372e+06
2.39331e+06
2.22257e+06
2.05697e+06
1.95426e+06
1.97149e+06
2.1477e+06
2.46455e+06
2.79606e+06
2.90937e+06
2.58099e+06
2.00147e+06
1.98616e+06
1.21549e+06
1.36712e+06
2.28845e+06
2.12025e+06
1.69995e+06
1.48149e+06
1.48832e+06
1.662e+06
1.95761e+06
2.32301e+06
2.65951e+06
2.81211e+06
2.61908e+06
2.1387e+06
2.06887e+06
1.02511e+06
902651
1.66819e+06
1.51871e+06
974174
1.01819e+06
1.31774e+06
1.55736e+06
1.74506e+06
1.90152e+06
2.00309e+06
1.985e+06
1.76143e+06
1.3919e+06
1.7205e+06
1.22681e+06
663969
1.60026e+06
1.56151e+06
707040
1.19956e+06
1.54661e+06
1.64625e+06
1.64477e+06
1.57949e+06
1.44544e+06
1.25379e+06
1.05526e+06
1.04765e+06
1.63249e+06
1.53391e+06
1.08397e+06
1.03817e+06
1.28565e+06
832536
1.44323e+06
1.78219e+06
1.6797e+06
1.55405e+06
1.45854e+06
1.39145e+06
1.3905e+06
1.48429e+06
1.62213e+06
1.69521e+06
1.12034e+06
1.14219e+06
935090
987482
413881
740794
1.29796e+06
1.1618e+06
1.04563e+06
1.00298e+06
1.01578e+06
1.08689e+06
1.17667e+06
1.17966e+06
1.02238e+06
1.18694e+06
1.76906e+06
2.09643e+06
2.31448e+06
2.31182e+06
1.86778e+06
1.90488e+06
1.77221e+06
1.37645e+06
1.18432e+06
1.24037e+06
1.40233e+06
1.63628e+06
1.82852e+06
1.6777e+06
2.25511e+06
2.89576e+06
3.14074e+06
3.21607e+06
3.08004e+06
2.51128e+06
2.47707e+06
2.40932e+06
1.48518e+06
1.1662e+06
1.57886e+06
2.11724e+06
2.65495e+06
3.05832e+06
2.90928e+06
3.85348e+06
4.47745e+06
4.64885e+06
4.64534e+06
4.40533e+06
3.73595e+06
2.96398e+06
2.72328e+06
2.06019e+06
1.33506e+06
1.86248e+06
2.55093e+06
3.20065e+06
3.67672e+06
3.47693e+06
4.95261e+06
5.53193e+06
5.74381e+06
5.75304e+06
5.51405e+06
4.88666e+06
4.01568e+06
3.47593e+06
2.87291e+06
1.9926e+06
1.83978e+06
2.52459e+06
3.09227e+06
3.34518e+06
2.98326e+06
5.23325e+06
5.2195e+06
5.36751e+06
5.34964e+06
5.13043e+06
4.62643e+06
3.93851e+06
3.54906e+06
3.42377e+06
2.76474e+06
1.79707e+06
2.08e+06
2.49214e+06
2.21135e+06
1.82867e+06
5.0758e+06
3.46812e+06
3.08665e+06
2.88798e+06
2.72368e+06
2.55334e+06
2.53373e+06
2.90357e+06
3.35734e+06
3.16965e+06
2.26438e+06
1.8107e+06
1.77481e+06
1.1759e+06
1.69265e+06
5.06516e+06
3.47716e+06
3.31222e+06
3.63177e+06
4.02349e+06
4.36999e+06
4.6875e+06
4.94659e+06
4.93682e+06
4.33561e+06
3.14168e+06
2.49745e+06
2.52248e+06
1.69255e+06
2.21817e+06
4.99587e+06
5.13542e+06
5.88893e+06
6.70176e+06
7.31283e+06
7.66039e+06
7.76283e+06
7.60887e+06
7.08215e+06
6.01408e+06
4.50423e+06
3.44565e+06
3.40094e+06
2.80582e+06
1.97525e+06
4.02022e+06
5.14259e+06
6.31522e+06
7.2537e+06
7.85049e+06
8.09907e+06
8.03807e+06
7.68471e+06
6.98998e+06
5.88003e+06
4.48601e+06
3.56814e+06
3.64129e+06
3.28633e+06
1.86374e+06
2.49559e+06
3.67376e+06
4.71659e+06
5.32444e+06
5.54993e+06
5.46974e+06
5.16247e+06
4.68037e+06
4.031e+06
3.23784e+06
2.55817e+06
2.63217e+06
3.23284e+06
3.13618e+06
2.17193e+06
1.45921e+06
1.92859e+06
2.75286e+06
2.95885e+06
2.80044e+06
2.56006e+06
2.43595e+06
2.51688e+06
2.78294e+06
3.20839e+06
3.76847e+06
4.32685e+06
4.52953e+06
3.88402e+06
2.36979e+06
1.37313e+06
1.24403e+06
1.81653e+06
2.36838e+06
2.81067e+06
3.44558e+06
4.23161e+06
5.01181e+06
5.68157e+06
6.2142e+06
6.59542e+06
6.74041e+06
6.42996e+06
5.33859e+06
3.29466e+06
1.50095e+06
1.44985e+06
1.76664e+06
2.40765e+06
3.22925e+06
4.01313e+06
4.80074e+06
5.50359e+06
6.03582e+06
6.38068e+06
6.53281e+06
6.4416e+06
5.97431e+06
4.92461e+06
3.40573e+06
1.49589e+06
1.3952e+06
1.79291e+06
1.73754e+06
2.35605e+06
2.8308e+06
3.1644e+06
3.39502e+06
3.49023e+06
3.46768e+06
3.34322e+06
3.10196e+06
2.68449e+06
2.0411e+06
2.44028e+06
1.98822e+06
1.9843e+06
1.69202e+06
1.29151e+06
907392
806981
935916
1.139e+06
1.4157e+06
1.71943e+06
2.00118e+06
2.23804e+06
2.42064e+06
2.52374e+06
2.82146e+06
2.64609e+06
2.42173e+06
1.93056e+06
1.34979e+06
1.28257e+06
1.21153e+06
2.08317e+06
3.18177e+06
3.78893e+06
4.12945e+06
4.34672e+06
4.44233e+06
4.3924e+06
4.16403e+06
3.49253e+06
4.12506e+06
4.03656e+06
3.30527e+06
2.42571e+06
1.8391e+06
1.65806e+06
1.48431e+06
2.85833e+06
4.05652e+06
4.7387e+06
5.08891e+06
5.19637e+06
5.0828e+06
4.71136e+06
3.87202e+06
3.86771e+06
3.86138e+06
3.1549e+06
2.33486e+06
2.11341e+06