/*--------------------------------*- C++ -*----------------------------------*\
| =========                 |                                                 |
| \\      /  F ield         | OpenFOAM: The Open Source CFD Toolbox           |
|  \\    /   O peration     | Version:  v2012                                 |
|   \\  /    A nd           | Website:  www.openfoam.com                      |
|    \\/     M anipulation  |                                                 |
\*---------------------------------------------------------------------------*/
FoamFile
{
    version     2.0;
    format      ascii;
    class       pointVectorField;
    location    "1";
    object      pointD;
}
// * * * * * * * * * * * * * * * * * * * * * * * * * * * * * * * * * * * * * //

dimensions      [0 1 0 0 0 0 0];


internalField   nonuniform List<vector> 
4913
(
(0 0 0)
(0 0 0)
(0 0 0)
(0 0 0)
(0 0 0)
(0 0 0)
(0 0 0)
(0 0 0)
(0 0 0)
(0 0 0)
(0 0 0)
(0 0 0)
(0 0 0)
(0 0 0)
(0 0 0)
(0 0 0)
(0 0 0)
(0 0 0)
(0 0 0)
(0 0 0)
(0 0 0)
(0 0 0)
(0 0 0)
(0 0 0)
(0 0 0)
(0 0 0)
(0 0 0)
(0 0 0)
(0 0 0)
(0 0 0)
(0 0 0)
(0 0 0)
(0 0 0)
(0 0 0)
(0 0 0)
(0 0 0)
(0 0 0)
(0 0 0)
(0 0 0)
(0 0 0)
(0 0 0)
(0 0 0)
(0 0 0)
(0 0 0)
(0 0 0)
(0 0 0)
(0 0 0)
(0 0 0)
(0 0 0)
(0 0 0)
(0 0 0)
(0 0 0)
(0 0 0)
(0 0 0)
(0 0 0)
(0 0 0)
(0 0 0)
(0 0 0)
(0 0 0)
(0 0 0)
(0 0 0)
(0 0 0)
(0 0 0)
(0 0 0)
(0 0 0)
(0 0 0)
(0 0 0)
(0 0 0)
(0 0 0)
(0 0 0)
(0 0 0)
(0 0 0)
(0 0 0)
(0 0 0)
(0 0 0)
(0 0 0)
(0 0 0)
(0 0 0)
(0 0 0)
(0 0 0)
(0 0 0)
(0 0 0)
(0 0 0)
(0 0 0)
(0 0 0)
(0 0 0)
(0 0 0)
(0 0 0)
(0 0 0)
(0 0 0)
(0 0 0)
(0 0 0)
(0 0 0)
(0 0 0)
(0 0 0)
(0 0 0)
(0 0 0)
(0 0 0)
(0 0 0)
(0 0 0)
(0 0 0)
(0 0 0)
(0 0 0)
(0 0 0)
(0 0 0)
(0 0 0)
(0 0 0)
(0 0 0)
(0 0 0)
(0 0 0)
(0 0 0)
(0 0 0)
(0 0 0)
(0 0 0)
(0 0 0)
(0 0 0)
(0 0 0)
(0 0 0)
(0 0 0)
(0 0 0)
(0 0 0)
(0 0 0)
(0 0 0)
(0 0 0)
(0 0 0)
(0 0 0)
(0 0 0)
(0 0 0)
(0 0 0)
(0 0 0)
(0 0 0)
(0 0 0)
(0 0 0)
(0 0 0)
(0 0 0)
(0 0 0)
(0 0 0)
(0 0 0)
(0 0 0)
(0 0 0)
(0 0 0)
(0 0 0)
(0 0 0)
(0 0 0)
(0 0 0)
(0 0 0)
(0 0 0)
(0 0 0)
(0 0 0)
(0 0 0)
(0 0 0)
(0 0 0)
(0 0 0)
(0 0 0)
(0 0 0)
(0 0 0)
(0 0 0)
(0 0 0)
(0 0 0)
(0 0 0)
(0 0 0)
(0 0 0)
(0 0 0)
(0 0 0)
(0 0 0)
(0 0 0)
(0 0 0)
(0 0 0)
(0 0 0)
(0 0 0)
(0 0 0)
(0 0 0)
(0 0 0)
(0 0 0)
(0 0 0)
(0 0 0)
(0 0 0)
(0 0 0)
(0 0 0)
(0 0 0)
(0 0 0)
(0 0 0)
(0 0 0)
(0 0 0)
(0 0 0)
(0 0 0)
(0 0 0)
(0 0 0)
(0 0 0)
(0 0 0)
(0 0 0)
(0 0 0)
(0 0 0)
(0 0 0)
(0 0 0)
(0 0 0)
(0 0 0)
(0 0 0)
(0 0 0)
(0 0 0)
(0 0 0)
(0 0 0)
(0 0 0)
(0 0 0)
(0 0 0)
(0 0 0)
(0 0 0)
(0 0 0)
(0 0 0)
(0 0 0)
(0 0 0)
(0 0 0)
(0 0 0)
(0 0 0)
(0 0 0)
(0 0 0)
(0 0 0)
(0 0 0)
(0 0 0)
(0 0 0)
(0 0 0)
(0 0 0)
(0 0 0)
(0 0 0)
(0 0 0)
(0 0 0)
(0 0 0)
(0 0 0)
(0 0 0)
(0 0 0)
(0 0 0)
(0 0 0)
(0 0 0)
(0 0 0)
(0 0 0)
(0 0 0)
(0 0 0)
(0 0 0)
(0 0 0)
(0 0 0)
(0 0 0)
(0 0 0)
(0 0 0)
(0 0 0)
(0 0 0)
(0 0 0)
(0 0 0)
(0 0 0)
(0 0 0)
(0 0 0)
(0 0 0)
(0 0 0)
(0 0 0)
(0 0 0)
(0 0 0)
(0 0 0)
(0 0 0)
(0 0 0)
(0 0 0)
(0 0 0)
(0 0 0)
(0 0 0)
(0 0 0)
(0 0 0)
(0 0 0)
(0 0 0)
(0 0 0)
(0 0 0)
(0 0 0)
(0 0 0)
(0 0 0)
(0 0 0)
(0 0 0)
(0 0 0)
(0 0 0)
(0 0 0)
(0 0 0)
(0 0 0)
(0 0 0)
(0 0 0)
(0 0 0)
(0 0 0)
(0 0 0)
(0 0 0)
(0 0 0)
(0 0 0)
(0 0 0)
(0 0 0)
(0 0 0)
(0 0 0)
(0 0 0)
(0 0 0)
(0 0 0)
(0 0 0)
(0 0 0)
(0 0 0)
(0 0 0)
(0 0 0)
(0 0 0)
(0 0 0)
(0 0 0)
(0 0 0)
(0 0 0)
(0 0 0)
(0 0 0)
(0 0 0)
(0 0 0)
(0 0 0)
(0 0 0)
(0 0 0)
(0 0 0)
(0 0 0)
(0 0 0)
(0 0 0)
(0 0 0)
(0 0 0)
(0 0 0)
(0 0 0)
(0 0 0)
(0 0 0)
(0 0 0)
(0 0 0)
(0 0 0)
(0 0 0)
(0 0 0)
(0 0 0)
(0 0 0)
(0 0 0)
(0 0 0)
(0 0 0)
(0 0 0)
(0 0 0)
(0 0 0)
(0 0 0)
(0 0 0)
(0 0 0)
(0 0 0)
(0 0 0)
(0 0 0)
(0 0 0)
(0 0 0)
(0 0 0)
(0 0 0)
(0 0 0)
(0 0 0)
(0 0 0)
(0 0 0)
(0 0 0)
(0 0 0)
(0 0 0)
(0 0 0)
(0 0 0)
(0 0 0)
(0 0 0)
(0 0 0)
(0 0 0)
(0 0 0)
(0 0 0)
(0 0 0)
(0 0 0)
(0 0 0)
(0 0 0)
(0 0 0)
(0 0 0)
(0 0 0)
(0 0 0)
(0 0 0)
(0 0 0)
(0 0 0)
(0 0 0)
(0 0 0)
(0 0 0)
(0 0 0)
(0 0 0)
(0 0 0)
(0 0 0)
(0 0 0)
(0 0 0)
(0 0 0)
(0 0 0)
(0 0 0)
(0 0 0)
(0 0 0)
(0 0 0)
(0 0 0)
(0 0 0)
(0 0 0)
(0 0 0)
(0 0 0)
(0 0 0)
(0 0 0)
(0 0 0)
(0 0 0)
(0 0 0)
(0 0 0)
(0 0 0)
(0 0 0)
(0 0 0)
(0 0 0)
(0 0 0)
(0 0 0)
(0 0 0)
(0 0 0)
(0 0 0)
(0 0 0)
(0 0 0)
(0 0 0)
(0 0 0)
(0 0 0)
(0 0 0)
(0 0 0)
(0 0 0)
(0 0 0)
(0 0 0)
(0 0 0)
(0 0 0)
(0 0 0)
(0 0 0)
(0 0 0)
(0 0 0)
(0 0 0)
(0 0 0)
(0 0 0)
(0 0 0)
(0 0 0)
(0 0 0)
(0 0 0)
(0 0 0)
(0 0 0)
(0 0 0)
(0 0 0)
(0 0 0)
(0 0 0)
(0 0 0)
(0 0 0)
(0 0 0)
(0 0 0)
(0 0 0)
(0 0 0)
(0 0 0)
(0 0 0)
(0 0 0)
(0 0 0)
(0 0 0)
(0 0 0)
(0 0 0)
(0 0 0)
(0 0 0)
(0 0 0)
(0 0 0)
(0 0 0)
(0 0 0)
(0 0 0)
(0 0 0)
(0 0 0)
(0 0 0)
(0 0 0)
(0 0 0)
(0 0 0)
(0 0 0)
(0 0 0)
(0 0 0)
(0 0 0)
(0 0 0)
(0 0 0)
(0 0 0)
(0 0 0)
(0 0 0)
(0 0 0)
(0 0 0)
(0 0 0)
(0 0 0)
(0 0 0)
(0 0 0)
(0 0 0)
(0 0 0)
(0 0 0)
(0 0 0)
(0 0 0)
(0 0 0)
(0 0 0)
(0 0 0)
(0 0 0)
(0 0 0)
(0 0 0)
(0 0 0)
(0 0 0)
(0 0 0)
(0 0 0)
(0 0 0)
(0 0 0)
(0 0 0)
(0 0 0)
(0 0 0)
(0 0 0)
(0 0 0)
(0 0 0)
(0 0 0)
(0 0 0)
(0 0 0)
(0 0 0)
(0 0 0)
(0 0 0)
(0 0 0)
(0 0 0)
(0 0 0)
(0 0 0)
(0 0 0)
(0 0 0)
(0 0 0)
(0 0 0)
(0 0 0)
(0 0 0)
(0 0 0)
(0 0 0)
(0 0 0)
(0 0 0)
(0 0 0)
(0 0 0)
(0 0 0)
(0 0 0)
(0 0 0)
(0 0 0)
(0 0 0)
(0 0 0)
(0 0 0)
(0 0 0)
(0 0 0)
(0 0 0)
(0 0 0)
(0 0 0)
(0 0 0)
(0 0 0)
(0 0 0)
(0 0 0)
(0 0 0)
(0 0 0)
(0 0 0)
(0 0 0)
(0 0 0)
(0 0 0)
(0 0 0)
(0 0 0)
(0 0 0)
(0 0 0)
(0 0 0)
(0 0 0)
(0 0 0)
(0 0 0)
(0 0 0)
(0 0 0)
(0 0 0)
(0 0 0)
(0 0 0)
(0 0 0)
(0 0 0)
(0 0 0)
(0 0 0)
(0 0 0)
(0 0 0)
(0 0 0)
(0 0 0)
(0 0 0)
(0 0 0)
(0 0 0)
(0 0 0)
(0 0 0)
(0 0 0)
(0 0 0)
(0 0 0)
(0 0 0)
(0 0 0)
(0 0 0)
(0 0 0)
(0 0 0)
(0 0 0)
(0 0 0)
(0 0 0)
(0 0 0)
(0 0 0)
(0 0 0)
(0 0 0)
(0 0 0)
(0 0 0)
(0 0 0)
(0 0 0)
(0 0 0)
(0 0 0)
(0 0 0)
(0 0 0)
(0 0 0)
(0 0 0)
(0 0 0)
(0 0 0)
(0 0 0)
(0 0 0)
(0 0 0)
(0 0 0)
(0 0 0)
(0 0 0)
(0 0 0)
(0 0 0)
(0 0 0)
(0 0 0)
(0 0 0)
(0 0 0)
(0 0 0)
(0 0 0)
(0 0 0)
(0 0 0)
(0 0 0)
(0 0 0)
(0 0 0)
(0 0 0)
(0 0 0)
(0 0 0)
(0 0 0)
(0 0 0)
(0 0 0)
(0 0 0)
(0 0 0)
(0 0 0)
(0 0 0)
(0 0 0)
(0 0 0)
(0 0 0)
(0 0 0)
(0 0 0)
(0 0 0)
(0 0 0)
(0 0 0)
(0 0 0)
(0 0 0)
(0 0 0)
(0 0 0)
(0 0 0)
(0 0 0)
(0 0 0)
(0 0 0)
(0 0 0)
(0 0 0)
(0 0 0)
(0 0 0)
(0 0 0)
(0 0 0)
(0 0 0)
(0 0 0)
(0 0 0)
(0 0 0)
(0 0 0)
(0 0 0)
(0 0 0)
(0 0 0)
(0 0 0)
(0 0 0)
(0 0 0)
(0 0 0)
(0 0 0)
(0 0 0)
(0 0 0)
(0 0 0)
(0 0 0)
(0 0 0)
(0 0 0)
(0 0 0)
(0 0 0)
(0 0 0)
(0 0 0)
(0 0 0)
(0 0 0)
(0 0 0)
(0 0 0)
(0 0 0)
(0 0 0)
(0 0 0)
(0 0 0)
(0 0 0)
(0 0 0)
(0 0 0)
(0 0 0)
(0 0 0)
(0 0 0)
(0 0 0)
(0 0 0)
(0 0 0)
(0 0 0)
(0 0 0)
(0 0 0)
(0 0 0)
(0 0 0)
(0 0 0)
(0 0 0)
(0 0 0)
(0 0 0)
(0 0 0)
(0 0 0)
(0 0 0)
(0 0 0)
(0 0 0)
(0 0 0)
(0 0 0)
(0 0 0)
(0 0 0)
(0 0 0)
(0 0 0)
(0 0 0)
(0 0 0)
(0 0 0)
(0 0 0)
(0 0 0)
(0 0 0)
(0 0 0)
(0 0 0)
(0 0 0)
(0 0 0)
(0 0 0)
(0 0 0)
(0 0 0)
(0 0 0)
(0 0 0)
(0 0 0)
(0 0 0)
(0 0 0)
(0 0 0)
(0 0 0)
(0 0 0)
(0 0 0)
(0 0 0)
(0 0 0)
(0 0 0)
(0 0 0)
(0 0 0)
(0 0 0)
(0 0 0)
(0 0 0)
(0 0 0)
(0 0 0)
(0 0 0)
(0 0 0)
(0 0 0)
(0 0 0)
(0 0 0)
(0 0 0)
(0 0 0)
(0 0 0)
(0 0 0)
(0 0 0)
(0 0 0)
(0 0 0)
(0 0 0)
(0 0 0)
(0 0 0)
(0 0 0)
(0 0 0)
(0 0 0)
(0 0 0)
(0 0 0)
(0 0 0)
(0 0 0)
(0 0 0)
(0 0 0)
(0 0 0)
(0 0 0)
(0 0 0)
(0 0 0)
(0 0 0)
(0 0 0)
(0 0 0)
(0 0 0)
(0 0 0)
(0 0 0)
(0 0 0)
(0 0 0)
(0 0 0)
(0 0 0)
(0 0 0)
(0 0 0)
(0 0 0)
(0 0 0)
(0 0 0)
(0 0 0)
(0 0 0)
(0 0 0)
(0 0 0)
(0 0 0)
(0 0 0)
(0 0 0)
(0 0 0)
(0 0 0)
(0 0 0)
(0 0 0)
(0 0 0)
(0 0 0)
(0 0 0)
(0 0 0)
(0 0 0)
(0 0 0)
(0 0 0)
(0 0 0)
(0 0 0)
(0 0 0)
(0 0 0)
(0 0 0)
(0 0 0)
(0 0 0)
(0 0 0)
(0 0 0)
(0 0 0)
(0 0 0)
(0 0 0)
(0 0 0)
(0 0 0)
(0 0 0)
(0 0 0)
(0 0 0)
(0 0 0)
(0 0 0)
(0 0 0)
(0 0 0)
(0 0 0)
(0 0 0)
(0 0 0)
(0 0 0)
(0 0 0)
(0 0 0)
(0 0 0)
(0 0 0)
(0 0 0)
(0 0 0)
(0 0 0)
(0 0 0)
(0 0 0)
(0 0 0)
(0 0 0)
(0 0 0)
(0 0 0)
(0 0 0)
(0 0 0)
(0 0 0)
(0 0 0)
(0 0 0)
(0 0 0)
(0 0 0)
(0 0 0)
(0 0 0)
(0 0 0)
(0 0 0)
(0 0 0)
(0 0 0)
(0 0 0)
(0 0 0)
(0 0 0)
(0 0 0)
(0 0 0)
(0 0 0)
(0 0 0)
(0 0 0)
(0 0 0)
(0 0 0)
(0 0 0)
(0 0 0)
(0 0 0)
(0 0 0)
(0 0 0)
(0 0 0)
(0 0 0)
(0 0 0)
(0 0 0)
(0 0 0)
(0 0 0)
(0 0 0)
(0 0 0)
(0 0 0)
(0 0 0)
(0 0 0)
(0 0 0)
(0 0 0)
(0 0 0)
(0 0 0)
(0 0 0)
(0 0 0)
(0 0 0)
(0 0 0)
(0 0 0)
(0 0 0)
(0 0 0)
(0 0 0)
(0 0 0)
(0 0 0)
(0 0 0)
(0 0 0)
(0 0 0)
(0 0 0)
(0 0 0)
(0 0 0)
(0 0 0)
(0 0 0)
(0 0 0)
(0 0 0)
(0 0 0)
(0 0 0)
(0 0 0)
(0 0 0)
(0 0 0)
(0 0 0)
(0 0 0)
(0 0 0)
(0 0 0)
(0 0 0)
(0 0 0)
(0 0 0)
(0 0 0)
(0 0 0)
(0 0 0)
(0 0 0)
(0 0 0)
(0 0 0)
(0 0 0)
(0 0 0)
(0 0 0)
(0 0 0)
(0 0 0)
(0 0 0)
(0 0 0)
(0 0 0)
(0 0 0)
(0 0 0)
(0 0 0)
(0 0 0)
(0 0 0)
(0 0 0)
(0 0 0)
(0 0 0)
(0 0 0)
(0 0 0)
(0 0 0)
(0 0 0)
(0 0 0)
(0 0 0)
(0 0 0)
(0 0 0)
(0 0 0)
(0 0 0)
(0 0 0)
(0 0 0)
(0 0 0)
(0 0 0)
(0 0 0)
(0 0 0)
(0 0 0)
(0 0 0)
(0 0 0)
(0 0 0)
(0 0 0)
(0 0 0)
(0 0 0)
(0 0 0)
(0 0 0)
(0 0 0)
(0 0 0)
(0 0 0)
(0 0 0)
(0 0 0)
(0 0 0)
(0 0 0)
(0 0 0)
(0 0 0)
(0 0 0)
(0 0 0)
(0 0 0)
(0 0 0)
(0 0 0)
(0 0 0)
(0 0 0)
(0 0 0)
(0 0 0)
(0 0 0)
(0 0 0)
(0 0 0)
(0 0 0)
(0 0 0)
(0 0 0)
(0 0 0)
(0 0 0)
(0 0 0)
(0 0 0)
(0 0 0)
(0 0 0)
(0 0 0)
(0 0 0)
(0 0 0)
(0 0 0)
(0 0 0)
(0 0 0)
(0 0 0)
(0 0 0)
(0 0 0)
(0 0 0)
(0 0 0)
(0 0 0)
(0 0 0)
(0 0 0)
(0 0 0)
(0 0 0)
(0 0 0)
(0 0 0)
(0 0 0)
(0 0 0)
(0 0 0)
(0 0 0)
(0 0 0)
(0 0 0)
(0 0 0)
(0 0 0)
(0 0 0)
(0 0 0)
(0 0 0)
(0 0 0)
(0 0 0)
(0 0 0)
(0 0 0)
(0 0 0)
(0 0 0)
(0 0 0)
(0 0 0)
(0 0 0)
(0 0 0)
(0 0 0)
(0 0 0)
(0 0 0)
(0 0 0)
(0 0 0)
(0 0 0)
(0 0 0)
(0 0 0)
(0 0 0)
(0 0 0)
(0 0 0)
(0 0 0)
(0 0 0)
(0 0 0)
(0 0 0)
(0 0 0)
(0 0 0)
(0 0 0)
(0 0 0)
(0 0 0)
(0 0 0)
(0 0 0)
(0 0 0)
(0 0 0)
(0 0 0)
(0 0 0)
(0 0 0)
(0 0 0)
(0 0 0)
(0 0 0)
(0 0 0)
(0 0 0)
(0 0 0)
(0 0 0)
(0 0 0)
(0 0 0)
(0 0 0)
(0 0 0)
(0 0 0)
(0 0 0)
(0 0 0)
(0 0 0)
(0 0 0)
(0 0 0)
(0 0 0)
(0 0 0)
(0 0 0)
(0 0 0)
(0 0 0)
(0 0 0)
(0 0 0)
(0 0 0)
(0 0 0)
(0 0 0)
(0 0 0)
(0 0 0)
(0 0 0)
(0 0 0)
(0 0 0)
(0 0 0)
(0 0 0)
(0 0 0)
(0 0 0)
(0 0 0)
(0 0 0)
(0 0 0)
(0 0 0)
(0 0 0)
(0 0 0)
(0 0 0)
(0 0 0)
(0 0 0)
(0 0 0)
(0 0 0)
(0 0 0)
(0 0 0)
(0 0 0)
(0 0 0)
(0 0 0)
(0 0 0)
(0 0 0)
(0 0 0)
(0 0 0)
(0 0 0)
(0 0 0)
(0 0 0)
(0 0 0)
(0 0 0)
(0 0 0)
(0 0 0)
(0 0 0)
(0 0 0)
(0 0 0)
(0 0 0)
(0 0 0)
(0 0 0)
(0 0 0)
(0 0 0)
(0 0 0)
(0 0 0)
(0 0 0)
(0 0 0)
(0 0 0)
(0 0 0)
(0 0 0)
(0 0 0)
(0 0 0)
(0 0 0)
(0 0 0)
(0 0 0)
(0 0 0)
(0 0 0)
(0 0 0)
(0 0 0)
(0 0 0)
(0 0 0)
(0 0 0)
(0 0 0)
(0 0 0)
(0 0 0)
(0 0 0)
(0 0 0)
(0 0 0)
(0 0 0)
(0 0 0)
(0 0 0)
(0 0 0)
(0 0 0)
(0 0 0)
(0 0 0)
(0 0 0)
(0 0 0)
(0 0 0)
(0 0 0)
(0 0 0)
(0 0 0)
(0 0 0)
(0 0 0)
(0 0 0)
(0 0 0)
(0 0 0)
(0 0 0)
(0 0 0)
(0 0 0)
(0 0 0)
(0 0 0)
(0 0 0)
(0 0 0)
(0 0 0)
(0 0 0)
(0 0 0)
(0 0 0)
(0 0 0)
(0 0 0)
(0 0 0)
(0 0 0)
(0 0 0)
(0 0 0)
(0 0 0)
(0 0 0)
(0 0 0)
(0 0 0)
(0 0 0)
(0 0 0)
(0 0 0)
(0 0 0)
(0 0 0)
(0 0 0)
(0 0 0)
(0 0 0)
(0 0 0)
(0 0 0)
(0 0 0)
(0 0 0)
(0 0 0)
(0 0 0)
(0 0 0)
(0 0 0)
(0 0 0)
(0 0 0)
(0 0 0)
(0 0 0)
(0 0 0)
(0 0 0)
(0 0 0)
(0 0 0)
(0 0 0)
(0 0 0)
(0 0 0)
(0 0 0)
(0 0 0)
(0 0 0)
(0 0 0)
(0 0 0)
(0 0 0)
(0 0 0)
(0 0 0)
(0 0 0)
(0 0 0)
(0 0 0)
(0 0 0)
(0 0 0)
(0 0 0)
(0 0 0)
(0 0 0)
(0 0 0)
(0 0 0)
(0 0 0)
(0 0 0)
(0 0 0)
(0 0 0)
(0 0 0)
(0 0 0)
(0 0 0)
(0 0 0)
(0 0 0)
(0 0 0)
(0 0 0)
(0 0 0)
(0 0 0)
(0 0 0)
(0 0 0)
(0 0 0)
(0 0 0)
(0 0 0)
(0 0 0)
(0 0 0)
(0 0 0)
(0 0 0)
(0 0 0)
(0 0 0)
(0 0 0)
(0 0 0)
(0 0 0)
(0 0 0)
(0 0 0)
(0 0 0)
(0 0 0)
(0 0 0)
(0 0 0)
(0 0 0)
(0 0 0)
(0 0 0)
(0 0 0)
(0 0 0)
(0 0 0)
(0 0 0)
(0 0 0)
(0 0 0)
(0 0 0)
(0 0 0)
(0 0 0)
(0 0 0)
(0 0 0)
(0 0 0)
(0 0 0)
(0 0 0)
(0 0 0)
(0 0 0)
(0 0 0)
(0 0 0)
(0 0 0)
(0 0 0)
(0 0 0)
(0 0 0)
(0 0 0)
(0 0 0)
(0 0 0)
(0 0 0)
(0 0 0)
(0 0 0)
(0 0 0)
(0 0 0)
(0 0 0)
(0 0 0)
(0 0 0)
(0 0 0)
(0 0 0)
(0 0 0)
(0 0 0)
(0 0 0)
(0 0 0)
(0 0 0)
(0 0 0)
(0 0 0)
(0 0 0)
(0 0 0)
(0 0 0)
(0 0 0)
(0 0 0)
(0 0 0)
(0 0 0)
(0 0 0)
(0 0 0)
(0 0 0)
(0 0 0)
(0 0 0)
(0 0 0)
(0 0 0)
(0 0 0)
(0 0 0)
(0 0 0)
(0 0 0)
(0 0 0)
(0 0 0)
(0 0 0)
(0 0 0)
(0 0 0)
(0 0 0)
(0 0 0)
(0 0 0)
(0 0 0)
(0 0 0)
(0 0 0)
(0 0 0)
(0 0 0)
(0 0 0)
(0 0 0)
(0 0 0)
(0 0 0)
(0 0 0)
(0 0 0)
(0 0 0)
(0 0 0)
(0 0 0)
(0 0 0)
(0 0 0)
(0 0 0)
(0 0 0)
(0 0 0)
(0 0 0)
(0 0 0)
(0 0 0)
(0 0 0)
(0 0 0)
(0 0 0)
(0 0 0)
(0 0 0)
(0 0 0)
(0 0 0)
(0 0 0)
(0 0 0)
(0 0 0)
(0 0 0)
(0 0 0)
(0 0 0)
(0 0 0)
(0 0 0)
(0 0 0)
(0 0 0)
(0 0 0)
(0 0 0)
(0 0 0)
(0 0 0)
(0 0 0)
(0 0 0)
(0 0 0)
(0 0 0)
(0 0 0)
(0 0 0)
(0 0 0)
(0 0 0)
(0 0 0)
(0 0 0)
(0 0 0)
(0 0 0)
(0 0 0)
(0 0 0)
(0 0 0)
(0 0 0)
(0 0 0)
(0 0 0)
(0 0 0)
(0 0 0)
(0 0 0)
(0 0 0)
(0 0 0)
(0 0 0)
(0 0 0)
(0 0 0)
(0 0 0)
(0 0 0)
(0 0 0)
(0 0 0)
(0 0 0)
(0 0 0)
(0 0 0)
(0 0 0)
(0 0 0)
(0 0 0)
(0 0 0)
(0 0 0)
(0 0 0)
(0 0 0)
(0 0 0)
(0 0 0)
(0 0 0)
(0 0 0)
(0 0 0)
(0 0 0)
(0 0 0)
(0 0 0)
(0 0 0)
(0 0 0)
(0 0 0)
(0 0 0)
(0 0 0)
(0 0 0)
(0 0 0)
(0 0 0)
(0 0 0)
(0 0 0)
(0 0 0)
(0 0 0)
(0 0 0)
(0 0 0)
(0 0 0)
(0 0 0)
(0 0 0)
(0 0 0)
(0 0 0)
(0 0 0)
(0 0 0)
(0 0 0)
(0 0 0)
(0 0 0)
(0 0 0)
(0 0 0)
(0 0 0)
(0 0 0)
(0 0 0)
(0 0 0)
(0 0 0)
(0 0 0)
(0 0 0)
(0 0 0)
(0 0 0)
(0 0 0)
(0 0 0)
(0 0 0)
(0 0 0)
(0 0 0)
(0 0 0)
(0 0 0)
(0 0 0)
(0 0 0)
(0 0 0)
(0 0 0)
(0 0 0)
(0 0 0)
(0 0 0)
(0 0 0)
(0 0 0)
(0 0 0)
(0 0 0)
(0 0 0)
(0 0 0)
(0 0 0)
(0 0 0)
(0 0 0)
(0 0 0)
(0 0 0)
(0 0 0)
(0 0 0)
(0 0 0)
(0 0 0)
(0 0 0)
(0 0 0)
(0 0 0)
(0 0 0)
(0 0 0)
(0 0 0)
(0 0 0)
(0 0 0)
(0 0 0)
(0 0 0)
(0 0 0)
(0 0 0)
(0 0 0)
(0 0 0)
(0 0 0)
(0 0 0)
(0 0 0)
(0 0 0)
(0 0 0)
(0 0 0)
(0 0 0)
(0 0 0)
(0 0 0)
(0 0 0)
(0 0 0)
(0 0 0)
(0 0 0)
(0 0 0)
(0 0 0)
(0 0 0)
(0 0 0)
(0 0 0)
(0 0 0)
(0 0 0)
(0 0 0)
(0 0 0)
(0 0 0)
(0 0 0)
(0 0 0)
(0 0 0)
(0 0 0)
(0 0 0)
(0 0 0)
(0 0 0)
(0 0 0)
(286072 -6104.2 57624.7)
(400370 -426.952 80141)
(459925 -549.276 98577.6)
(490511 -3647.17 115202)
(498416 -8193.57 128864)
(485677 -14028.4 137566)
(453427 -21368.2 137929)
(402300 -25144 125176)
(329930 -9147.97 96861)
(225229 18453.4 49750.8)
(89960.3 2352.43 -43520)
(126766 12329.3 -47835.3)
(246223 29839.9 -25782.9)
(366207 45507.5 -12940)
(395432 49372.2 -18136.9)
(653964 44402.8 98320.7)
(879930 56315.3 132421)
(983422 62525.5 154705)
(1.02383e+06 63951.5 171615)
(1.01622e+06 61198 183078)
(966211 54570.3 187536)
(877709 44372.9 182304)
(754981 34430.7 164630)
(600227 36429 136999)
(407845 51623.2 104160)
(193785 39292.4 61188.3)
(150079 -10838.9 18745.4)
(309581 -1326.04 29354.4)
(489950 21588.5 38117.8)
(527503 43006.2 25538.7)
(787653 55907 97852.2)
(1.06601e+06 68479.7 139409)
(1.18357e+06 79830 160176)
(1.21884e+06 88326.4 170801)
(1.19434e+06 92744.2 174060)
(1.11918e+06 92802.7 170044)
(999366 88776.6 157699)
(841009 82723.3 136222)
(650022 80819.6 108520)
(429088 86993.8 81283.4)
(195329 81726.7 55004.2)
(56651.8 31343.1 38288.4)
(188968 -21035.6 74117.2)
(381540 -10515.2 94302.6)
(419080 14190 77604.8)
(623508 27575.4 72608)
(849685 31414.6 108257)
(924436 39869.4 119729)
(922257 49527.2 119080)
(869663 57937.5 111254)
(778538 64152.7 97765)
(656154 68037.5 78803.2)
(508863 70420.7 54569.1)
(343290 73865.4 27140)
(165967 81116 1238.95)
(-8261.49 85615.1 -19657.7)
(-123266 62237.5 -33254.7)
(-78914.2 5598.94 -15934.4)
(150817 -12866.6 78961.8)
(214258 -831.074 91621.4)
(318858 -760.452 39698.8)
(409308 -9335.53 56393)
(385170 -12266 52982.5)
(307419 -11268.2 40322.2)
(204415 -8294.47 23310.7)
(90046.2 -4311.78 3600.14)
(-27783.7 348.158 -18281.1)
(-143274 5922.99 -41890.6)
(-250877 13312.3 -65968.9)
(-344435 23690.2 -87819.5)
(-413474 35070.2 -104292)
(-430775 35464.4 -113327)
(-349212 9356.8 -107899)
(-149160 -17667.2 -64015.3)
(32441.1 8273.78 34436.4)
(79346.5 4051.12 3823.28)
(25917.4 -10316.9 -3943.19)
(-110302 -25343.1 -21022.8)
(-273059 -37411 -39759.2)
(-432228 -46330.8 -57947.2)
(-573550 -52380.5 -75571.3)
(-689895 -55700.1 -92834.4)
(-776814 -56122.5 -109641)
(-830542 -53188.2 -125407)
(-847006 -46397.1 -138768)
(-820336 -36337.3 -147560)
(-739447 -27964.2 -149511)
(-587560 -31596.2 -142197)
(-360093 -45347.6 -116596)
(-119729 -32326.8 -61638.2)
(-194.729 30389 -32856.1)
(-131225 25962 -63645.4)
(-337483 8967.71 -88984.5)
(-547175 -9759.77 -104198)
(-728094 -26888.3 -112337)
(-869957 -41729.2 -117078)
(-970205 -54165.7 -120479)
(-1.02788e+06 -63943.8 -123266)
(-1.04187e+06 -70568.6 -125479)
(-1.01062e+06 -73521.3 -126637)
(-931970 -72777.2 -125550)
(-803301 -70093.4 -120382)
(-623480 -70625.4 -109424)
(-400267 -78004.6 -90255.6)
(-170680 -73725.6 -54793.7)
(53067.2 -3508.48 -27769)
(-67211.2 52188.5 -89971.1)
(-288553 52001.7 -130071)
(-486216 40275.5 -139977)
(-627000 26903.5 -131843)
(-713984 13745.6 -116779)
(-756795 842.572 -100481)
(-762193 -11736.1 -85067.8)
(-733582 -23563.9 -71231.5)
(-672380 -34039.8 -59188.2)
(-579371 -42781.3 -48720.7)
(-456340 -50208 -39144)
(-309284 -58400.3 -30116.2)
(-154362 -70023.5 -22839.6)
(-29846.2 -75656.1 -17600.5)
(169151 -29492.8 47646.2)
(163930 30164.9 18373.1)
(-80656.3 59792.7 -90935.8)
(-253353 62460.1 -123943)
(-314766 62291.3 -110330)
(-299439 61730 -79921.5)
(-242462 59814.9 -47020.3)
(-164497 55776.4 -16586.4)
(-75713.4 49552.9 9807.27)
(18941.9 41505.5 31317.4)
(116143 32023 47235.5)
(211504 21128.2 56876.5)
(295600 8124.98 58687.6)
(345902 -8066.24 48479.3)
(304772 -23181.2 20963.8)
(384231 -3054.02 113697)
(409355 29116.2 118576)
(220794 64405 72371.8)
(-13389.6 45745.5 -31865.4)
(-30756.5 49354 -42220.2)
(82008.3 60854.9 -13220.5)
(242163 73456.6 23518.1)
(407210 83898.6 57720.2)
(559099 90963.4 86639.4)
(690157 94411.1 108960)
(795425 94315.4 123331)
(868977 90698.1 128216)
(899516 83414.3 121134)
(859458 72299 97078.2)
(666469 56079.8 49600)
(613693 61828.7 125814)
(642799 73783.2 147640)
(451538 89933.7 134412)
(192049 73737.9 94536.6)
(109830 17020.4 50714.8)
(256169 19511.4 66106)
(470728 36530.7 94181.6)
(679693 55929.4 119254)
(858955 73711.3 138766)
(1.00205e+06 88649.9 151841)
(1.10507e+06 100406 157143)
(1.16219e+06 108880 153287)
(1.16191e+06 114199 138674)
(1.07534e+06 116668 110557)
(811718 110375 64566.4)
(681904 113666 73805.2)
(718241 121231 97920.6)
(539385 124148 97340.1)
(287736 111888 80723.6)
(118036 52569 64888.1)
(228341 -9119.25 101658)
(436985 -7122.08 132891)
(625763 8833.92 148832)
(771464 27113.6 155006)
(877729 44780.4 154685)
(946562 61224.9 148078)
(974787 76338.9 135117)
(953101 90375.7 116481)
(857641 103619 93388.8)
(619270 107845 64656.1)
(488326 114201 -11118.5)
(528587 126568 4318.63)
(401614 127363 7101.01)
(215689 120581 -2323.24)
(63586.6 84141.3 -17613.8)
(64799.4 15654.8 -9283.21)
(265618 -4638.04 75368.4)
(413631 8409.56 110511)
(491417 24871.4 118880)
(528568 40147.3 115669)
(539618 54271.3 105824)
(526060 67402.8 91978.7)
(482705 79636.5 77395.1)
(395791 90341.7 66261.1)
(238681 89493.2 58443.1)
(167176 93983.6 -70570.7)
(195517 110054 -64256.4)
(133485 107490 -58871.3)
(37419.6 97557.8 -64345.5)
(-42984.9 73968.4 -78148.2)
(-46731.9 25921.5 -87995.1)
(64752 -14436.4 -60868.2)
(205385 28133.8 38882.5)
(223598 45392.9 76706.9)
(190837 50500.6 84658.4)
(142677 51938.3 78183.6)
(85971.2 51813.6 65413.2)
(20081.8 50240.6 52511.5)
(-58032.2 45654.5 44928)
(-133033 30766.2 43178.5)
(-89516.8 30099.7 -78140.3)
(-82880.9 43488.6 -86112.1)
(-97541.9 38341.5 -86825.7)
(-121300 26946.8 -94175.9)
(-135300 11699.2 -108606)
(-116779 -11257.3 -125084)
(-47925.4 -33275.5 -126768)
(45167 -12223.3 -87294)
(59644.8 66346.6 -982.095)
(8458.33 69318.2 29658.3)
(-52788.1 61518.8 35249.8)
(-114656 50550.2 30929.5)
(-175097 36870.9 24298.8)
(-231915 18238.4 18834.2)
(-258071 -10387.6 13265.5)
(-245015 -25757.7 -715.424)
(-221013 -7319.46 -2248.47)
(-166990 73.0094 -9065.24)
(-109700 -210.317 -16273.8)
(-51485.6 -5159.74 -21524.9)
(7004.62 -14857.2 -24771.7)
(64237.3 -31953 -28849.9)
(117087 -45797.3 -38844.5)
(150430 -10620.9 -53290.3)
(59795.4 51091.9 -75288.1)
(-69434.9 30738.8 -90768.6)
(-138524 16466.3 -74739.4)
(-143946 14344.8 -50237.9)
(-123330 10591.3 -38446.2)
(-108187 -11101.8 -35857.1)
(-82094 -291.209 43744.2)
(15995 23402 52826.7)
(109429 28165.1 55522.4)
(183564 21025.8 56837.5)
(241582 6897.21 57958.6)
(285808 -12442.6 58178.2)
(316380 -37153.9 54215.2)
(332557 -59059.5 41243.4)
(326107 -44161.8 22104)
(244729 20196.1 -6140.16)
(41209.2 32231.2 -78871.4)
(-60480 455.821 -93032.4)
(-29904 -8377.71 -69522.4)
(49852.1 -8479.13 -49096.5)
(80749.2 -13429.8 -42032)
(259550 76.7201 58012.5)
(458447 6730.76 82875)
(583529 4385.77 103013)
(653771 -5100.55 120424)
(683099 -18862.7 134830)
(679229 -35100.1 144962)
(645843 -52635.5 148135)
(585229 -66676.8 140855)
(497501 -59781.9 123970)
(366797 -13757.4 101196)
(178228 30777.4 56835.2)
(21100.4 -24260.9 -38640.1)
(74620.8 -55435.5 -46779.2)
(218159 -51260 -28390)
(274241 -30500.3 -20895.9)
(537999 -20189 37968.3)
(810621 -38587.5 67058)
(950231 -49940.8 96638.4)
(1.00564e+06 -59289.3 124421)
(1.00112e+06 -67375.9 148686)
(949727 -73796.5 167614)
(858689 -77782.5 178864)
(733099 -76955.9 179778)
(578410 -63886.4 169729)
(397525 -27776.4 151879)
(197697 20509.8 125157)
(30175.7 15614 77812.5)
(41269.2 -75633.6 11297.7)
(220187 -81366.2 15971.8)
(316198 -45316.8 18929.2)
(607756 -36853.5 11852.8)
(881682 -70386.5 30122.6)
(998510 -87684 52776.8)
(1.02116e+06 -96188.3 76576.9)
(981275 -98651.4 99044.9)
(895934 -95997.9 117730)
(774618 -88543 130238)
(623827 -75697.6 134273)
(450869 -54978.1 128495)
(265627 -21892.6 114210)
(83437.7 21284.5 94869.7)
(-62748.4 42909.4 69981.2)
(-100907 -7059.47 43168.4)
(63426 -74925.9 44037.2)
(206030 -40170.1 51917.8)
(484802 -25112.7 5826.73)
(681664 -53335.6 6848.23)
(728140 -69063.5 10258.4)
(690337 -75484 18034.2)
(605789 -74344 27953.6)
(494323 -67009.7 36706.6)
(365907 -54763.6 41546)
(226525 -38343.2 40431)
(82533.7 -17523.6 32053.3)
(-56377.5 8803.01 16781.2)
(-175386 39910.8 -2004.34)
(-253542 63122.5 -19277.6)
(-260235 45524.6 -31824)
(-156592 -18932.1 -24160.5)
(36021.5 -25557.6 35376.3)
(298241 14326.5 20049.5)
(380981 9633.79 8551.42)
(326115 3581.99 -8513.05)
(206399 1380.99 -17614.5)
(67965.6 5117.79 -20678.8)
(-67558.9 13885.8 -22877.7)
(-192024 25640 -27913.9)
(-302162 38623.5 -37663)
(-394568 51976.2 -52902.7)
(-462991 65555 -73209.4)
(-497456 78780.2 -95704.4)
(-486431 86774.2 -114466)
(-420834 74132.9 -123291)
(-295811 24219.3 -115970)
(-124355 -25957.5 -75235)
(171723 43867.2 31053.1)
(172695 82776.8 17002)
(22582.8 93070.6 -13567.4)
(-175907 96344.4 -30580.9)
(-360387 102225 -35923.5)
(-508872 111343 -38878.4)
(-618995 120916 -45418.1)
(-693327 128223 -57656.6)
(-733132 131749 -75760.1)
(-736635 131030 -98870.7)
(-699504 125750 -124402)
(-617953 114049 -146904)
(-494640 89462 -158762)
(-341962 41537.3 -151704)
(-177528 -19448.8 -108830)
(116667 -978.197 -28083.7)
(141539 116273 -461.363)
(-54281.3 151634 -25853)
(-304530 157988 -42396.4)
(-506367 163211 -38092.6)
(-638552 171600 -28108.1)
(-711512 179485 -22794.8)
(-738762 182926 -25356.1)
(-728415 179817 -35639.5)
(-683404 169635 -52582.6)
(-604170 152456 -74249.1)
(-492608 127728 -96785.6)
(-358198 92777.6 -114202)
(-223381 42292.6 -118919)
(-116694 -19774.9 -96054.1)
(137891 -23915.4 -2017.5)
(238114 59667.5 -7784.54)
(69683.8 159001 -28922.1)
(-196780 161756 -53421.8)
(-385928 157971 -44722.4)
(-466800 161301 -18454.2)
(-471362 166976 5377.26)
(-431875 168926 20558.3)
(-366195 164161 26967.1)
(-281933 152122 25423.7)
(-182987 133278 16682)
(-74852.3 107898 2235.14)
(29013 75121.9 -15430.4)
(99289.6 32728 -33406.3)
(88491 -16819.6 -44119.2)
(242567 -14914.3 63260.7)
(369563 28177.8 66049.7)
(287930 111158 48142.5)
(20249 132321 -24506.6)
(-152023 101540 -42092.8)
(-167439 90229.2 -16221.9)
(-85478.2 90541.5 18504.5)
(33698.3 92008.4 47450)
(159484 89422.5 69321)
(280489 81892.1 84422.7)
(391001 70233.6 92101.7)
(483762 55413 91528)
(543425 37985.3 81724.4)
(536121 18301.4 59982.7)
(391962 -1856.13 22497.8)
(413834 19665.7 111614)
(531771 37229.5 136782)
(452013 83427.2 136300)
(242423 120995 100065)
(41992.1 53582.9 4075.48)
(61598.3 7533.14 -4223.35)
(216377 -2656.19 23511.3)
(402714 -803.517 52952.3)
(575409 1760.04 79234.5)
(722509 2683.02 102346)
(839161 2957.34 120536)
(918235 4011.39 131500)
(944593 7426.77 132398)
(883777 15454.1 117198)
(651140 28023.4 72737.4)
(559944 66088.1 105991)
(654447 75506.4 148560)
(553117 96494.8 163051)
(356463 122922 149745)
(158346 91977.3 100943)
(133034 -26266.1 27023)
(307430 -56294.8 30040.9)
(519797 -51058.1 50926.5)
(701308 -40069.3 71360.6)
(845224 -29109 91691.9)
(951590 -16932.8 110044)
(1.01558e+06 -2046.48 124025)
(1.0246e+06 17099.8 131127)
(949186 42565.4 125661)
(709416 69667.6 91819.4)
(555368 112312 51218.8)
(620853 125285 94656.9)
(522947 132313 116579)
(357250 140782 112663)
(185609 124160 83624)
(98596 37514.2 41220)
(219906 -61010.1 28871.1)
(400618 -49808.8 48709.5)
(543380 -29000.5 66808.9)
(647480 -12063.5 80756.8)
(720089 5476.72 92057)
(760305 25230.9 100117)
(759949 47569.7 104589)
(699271 71965.2 102671)
(523236 88804.6 82487.5)
(341601 115335 -10147.3)
(372426 133047 16306.9)
(314249 132470 32191.8)
(221679 127767 28085.2)
(123814 114092 6371.16)
(55429.3 66993.8 -26667.3)
(67601.1 -11181.6 -45989.9)
(176408 -15723.3 -3165.37)
(252543 27778.3 27444.8)
(304793 52456.5 44347.8)
(340538 73868.3 54183.1)
(360343 94036.5 59986.7)
(360679 111913 63709.7)
(332622 123453 64784.9)
(250004 110839 55866)
(54566.5 94744.6 657.322)
(74687.3 121050 -1926.34)
(88375.4 130378 -16450.6)
(93963.9 127490 -33919.7)
(93186.2 113971 -48303.4)
(88296.1 88077.5 -56403.6)
(81022.7 39495.8 -57833.8)
(76759.1 -13096.6 -48037.9)
(86551.3 44064 8769.65)
(50586.8 85295.4 19356.3)
(-13565.7 82014.8 17239)
(-64743 74629.1 23001.2)
(-89190.8 73813.8 28509.5)
(-95429.6 71105.6 24176.9)
(-86887 53019.5 14759.6)
(9776.22 113094 12091.1)
(68340.6 159544 9445.67)
(116530 167518 -11456.9)
(147193 153378 -37751.7)
(164524 124318 -61671.5)
(172521 82711.8 -79384.4)
(171803 24860.8 -91529.8)
(163982 -39257.2 -98713.9)
(155564 -39075.3 -82030.5)
(103613 75980.7 -11964.7)
(-8074.64 100098 5163.88)
(-104667 85747.9 16498.7)
(-146397 75084.6 30277.4)
(-151841 63824.5 32011.2)
(-142895 35026.3 20230.6)
(-4233.15 61617.6 30854.7)
(98916.4 93160.8 36306.3)
(178269 89287.2 23948.6)
(226303 65570.8 5078.99)
(251778 30611.6 -13970.2)
(261999 -11249.5 -30067.7)
(258522 -58855.6 -43313.4)
(240530 -106905 -56658.3)
(211386 -121194 -64958.6)
(161458 -49123.8 -51052.7)
(49176.3 55086.9 -13938.2)
(-67174.8 42157.8 -6208.12)
(-114095 16531.4 8050.96)
(-108535 1495.41 19470.2)
(-102307 -14505.6 14460.4)
(73619.5 -16810.3 27362.9)
(224583 -19417.8 40700.8)
(322541 -39815.4 45197.8)
(370324 -69516.4 45608.6)
(383687 -102084 44637)
(374357 -133687 43455.4)
(346925 -162087 41594.7)
(301231 -184087 36097.5)
(240485 -186179 24944.3)
(171176 -137334 15169.7)
(93324 -35697 11477.3)
(-6823.68 -5257.94 -13021.3)
(-44819.5 -50020.3 -21846.8)
(-16426.1 -68924.3 -10641.6)
(-1465.82 -62203.3 -3295.63)
(209775 -80591.3 -5185.43)
(401480 -114019 5961.94)
(505291 -145218 24385)
(540010 -174129 45737)
(529090 -197597 67810.5)
(488768 -213384 88718.8)
(426991 -220285 106379)
(346014 -217010 117453)
(249651 -199205 117714)
(150179 -154331 106716)
(67207.6 -72277.7 91263.6)
(9315.02 -447.988 64544)
(-15004.5 -59003.1 -9651.68)
(36453.6 -100897 -26356.1)
(77971.2 -81135.8 -17137.6)
(323380 -94256.3 -43729.1)
(533871 -134875 -46581.4)
(630297 -161979 -27416.5)
(645338 -180516 3619.45)
(609299 -189461 40256.5)
(542146 -188046 77367.1)
(454081 -176653 110782)
(349145 -155990 136438)
(231643 -125788 149717)
(113807 -82837.2 147562)
(18591.8 -22269.1 133510)
(-33042.1 41886.3 113908)
(-39258.6 42867.3 77070.5)
(12319.8 -65146.8 -861.428)
(82227.6 -68381.4 -10759.2)
(351589 -61618.9 -55445.8)
(549739 -82158.9 -73235.9)
(622701 -89664.7 -66388)
(611567 -89483.7 -41403.6)
(553432 -80381.2 -5626.15)
(471239 -62271 33202.3)
(375624 -37018.3 68993.5)
(270355 -7198.45 97183.2)
(158718 25233 113643)
(50118.1 59755.6 115239)
(-36349.3 97255.5 103526)
(-80119.4 133654 87101.3)
(-77667 140701 70822.2)
(-42896.4 70473.9 45429.3)
(27317.2 -23226.6 9051.7)
(293302 -12320.4 -27191.4)
(453745 9962.5 -46757.3)
(486587 31341.3 -56277.6)
(438873 51763.5 -47100.6)
(357734 76727.7 -23572.8)
(269391 107248 4619.53)
(182938 140436 29649.9)
(99311.4 172144 46874.1)
(18789.2 198969 53345.9)
(-53569.2 219041 47169.3)
(-105302 231732 29588.4)
(-121471 235693 8199.12)
(-99995 221184 -5755.92)
(-60850.3 162077 -9996.05)
(-22771.3 55992.8 -8001.23)
(204072 12084.5 11058.1)
(320598 88220.7 9821.41)
(306080 140562 -4098.93)
(212062 173637 -8001.16)
(102732 204179 3297.21)
(10320.1 237263 19380.3)
(-59371.9 269947 30531.4)
(-110889 296920 32131.2)
(-148759 313841 22763.7)
(-172862 318392 2272.7)
(-177468 309866 -27523.5)
(-155000 287924 -60139.7)
(-106872 249788 -83646.9)
(-53778 185835 -86077.5)
(-21338.8 88929.8 -60561.3)
(139574 -5641.09 -18983.9)
(231110 106912 32472.1)
(183404 196822 42398.9)
(44754.8 231908 39765.7)
(-94788.7 252413 47430.9)
(-191299 273900 59749.3)
(-242855 295234 65062.2)
(-262286 310452 58347.4)
(-260388 314677 39537.5)
(-241754 305651 9998.46)
(-206062 283181 -28006.4)
(-152106 247834 -69296.5)
(-85889.7 199424 -103880)
(-29164.2 135597 -117526)
(-9582.55 56369.1 -91797.5)
(121318 -20954.6 -39429.9)
(203982 27991.6 -31999.9)
(161893 176468 37668.6)
(3723.08 221439 54359.3)
(-157726 218295 64430.2)
(-253922 214880 80605.4)
(-285094 215742 90834.6)
(-275146 214409 88365.2)
(-242526 205352 73770.6)
(-195700 186595 49265.2)
(-137765 158726 16826.4)
(-71675.3 123324 -20319.5)
(-7141.77 81714 -55819.6)
(32067.2 34691 -79302.3)
(15586.2 -12774.8 -73269.5)
(110543 -39236 -19680.8)
(203264 -23600 -26067.6)
(192831 61043 -5444.01)
(63041.1 164561 34977.6)
(-95953 142689 40897.5)
(-183043 105506 53716.7)
(-188692 82727.3 70503.9)
(-149660 66347.4 79203.8)
(-93593.6 48243.2 79049.4)
(-31534.6 26165.5 72143.8)
(32121.3 1430.54 59347)
(92653.5 -23519.4 41345.1)
(138680 -46187.8 19949.2)
(145372 -64025.6 -1991.77)
(78698.9 -70745.4 -18943.9)
(108851 -45108.5 24016.3)
(199591 -42692.3 32584.9)
(198728 -2239.95 41605)
(131058 78688.1 46488.1)
(8305.97 81834.3 18522.8)
(-60640.6 8440.39 1103.25)
(-39922.5 -36881.7 8280.26)
(25927.8 -59800.6 22887.6)
(99536.8 -77107.6 36544.8)
(168726 -93280.7 49374.5)
(229687 -106747 60466.5)
(277905 -114846 68062.4)
(302693 -114798 70072.8)
(281079 -103704 62115.4)
(176014 -77835.6 35288)
(119954 -22937.3 55033.4)
(186546 -21793.6 89050.5)
(177713 -3412.62 107962)
(131952 42068.2 106168)
(71431.4 73390.7 74420.7)
(21761.5 -23739.4 -15813.7)
(55860.7 -100253 -47727.8)
(135002 -120520 -42686)
(213986 -126240 -25124.3)
(282135 -128551 -1739.13)