/*--------------------------------*- C++ -*----------------------------------*\
| =========                 |                                                 |
| \\      /  F ield         | OpenFOAM: The Open Source CFD Toolbox           |
|  \\    /   O peration     | Version:  v2012                                 |
|   \\  /    A nd           | Website:  www.openfoam.com                      |
|    \\/     M anipulation  |                                                 |
\*---------------------------------------------------------------------------*/
FoamFile
{
    version     2.0;
    format      ascii;
    class       volSymmTensorField;
    location    "1";
    object      sigma;
}
// * * * * * * * * * * * * * * * * * * * * * * * * * * * * * * * * * * * * * //

dimensions      [1 -1 -2 0 0 0 0];


internalField   nonuniform List<symmTensor> 
4096
(
(3.37491e+17 -8.99003e+16 1.05753e+17 1.65203e+17 -1.96089e+16 1.96908e+17)
(7.52652e+17 -2.13223e+17 7.75582e+16 3.34245e+17 -4.06426e+16 3.44082e+17)
(9.35432e+17 -2.65007e+17 7.33149e+16 4.0662e+17 -5.5028e+16 4.17365e+17)
(1.03316e+18 -2.93733e+17 7.51895e+16 4.50855e+17 -6.67315e+16 4.58503e+17)
(1.07677e+18 -3.07929e+17 7.75294e+16 4.75485e+17 -7.6496e+16 4.76606e+17)
(1.07407e+18 -3.09635e+17 7.80586e+16 4.82145e+17 -8.37737e+16 4.73825e+17)
(1.02785e+18 -2.99846e+17 7.48446e+16 4.7172e+17 -8.70262e+16 4.50161e+17)
(9.37133e+17 -2.77612e+17 6.52242e+16 4.39155e+17 -8.21172e+16 4.02684e+17)
(7.91314e+17 -2.35853e+17 4.60513e+16 3.61814e+17 -6.33972e+16 3.23287e+17)
(5.71825e+17 -1.67955e+17 1.28955e+16 2.24463e+17 -3.66186e+16 2.01198e+17)
(2.86784e+17 -9.05794e+16 -3.97039e+16 8.00175e+16 -6.87132e+15 3.54238e+16)
(2.2463e+17 -6.21677e+16 -1.67843e+16 8.22249e+16 3.11791e+16 8.86042e+16)
(3.92396e+17 -1.01791e+17 1.41041e+16 1.36914e+17 2.80396e+16 1.76435e+17)
(6.30691e+17 -1.65256e+17 2.50033e+16 2.07444e+17 1.67355e+16 2.61715e+17)
(7.74037e+17 -2.05157e+17 -5.69715e+14 2.46949e+17 1.07513e+16 3.02138e+17)
(4.11433e+17 -1.0648e+17 -1.27252e+17 1.37708e+17 -9.61088e+15 1.79252e+17)
(4.5049e+17 -2.73701e+17 3.01764e+17 2.00527e+17 -3.6199e+16 3.20061e+17)
(8.953e+17 -6.50181e+17 1.33305e+17 3.1583e+17 -1.07975e+17 4.08632e+17)
(1.04461e+18 -8.01179e+17 8.35241e+16 3.54812e+17 -1.41463e+17 4.52403e+17)
(1.09715e+18 -8.69852e+17 5.64733e+16 3.71554e+17 -1.66699e+17 4.6744e+17)
(1.09128e+18 -8.89843e+17 3.41281e+16 3.74705e+17 -1.8648e+17 4.59895e+17)
(1.03803e+18 -8.70318e+17 1.27502e+16 3.66103e+17 -1.99848e+17 4.31769e+17)
(9.42841e+17 -8.1498e+17 -8.12517e+15 3.46926e+17 -2.03961e+17 3.83035e+17)
(8.07783e+17 -7.27108e+17 -2.77001e+16 3.0978e+17 -1.91925e+17 3.10927e+17)
(6.282e+17 -6.09934e+17 -4.53946e+16 2.22326e+17 -1.55591e+17 2.10401e+17)
(4.05918e+17 -4.56764e+17 -6.23187e+16 6.72902e+16 -1.06146e+17 7.8003e+16)
(1.9403e+17 -2.60526e+17 -5.85266e+16 -5.09932e+16 -6.15418e+16 -6.6083e+16)
(9.54271e+16 -1.68252e+17 5.05813e+16 -9.35568e+15 -8.84087e+15 -1.15852e+16)
(9.45636e+16 -2.72918e+17 1.23285e+17 2.27638e+16 1.61667e+16 6.13274e+16)
(1.67338e+17 -4.51399e+17 1.25092e+17 -6.63773e+15 3.02546e+15 6.54953e+16)
(1.93684e+17 -5.56731e+17 4.96958e+16 -6.18779e+16 -2.24529e+15 2.53211e+16)
(9.61777e+16 -2.85939e+17 -2.70541e+17 -4.1945e+16 -3.07016e+16 1.03484e+16)
(1.88218e+17 -4.40035e+17 4.4343e+17 4.42182e+16 -2.94963e+16 2.26669e+17)
(2.75386e+17 -1.03504e+18 1.57181e+17 -5.99184e+16 -1.36467e+17 1.25166e+17)
(3.12497e+17 -1.25645e+18 7.18498e+16 -8.95759e+16 -1.75123e+17 1.01317e+17)
(3.02272e+17 -1.344e+18 2.47218e+16 -1.22211e+17 -1.99192e+17 7.60458e+16)
(2.67295e+17 -1.35302e+18 -1.29078e+16 -1.50767e+17 -2.14735e+17 4.67359e+16)
(2.17693e+17 -1.30036e+18 -4.66706e+16 -1.71478e+17 -2.21934e+17 1.4219e+16)
(1.58164e+17 -1.19379e+18 -7.70497e+16 -1.83464e+17 -2.19017e+17 -2.16522e+16)
(9.00666e+16 -1.04011e+18 -1.028e+17 -1.91772e+17 -2.02108e+17 -6.18321e+16)
(1.2547e+16 -8.47248e+17 -1.23886e+17 -2.15284e+17 -1.68085e+17 -1.05088e+17)
(-6.93154e+16 -6.17668e+17 -1.42976e+17 -2.70487e+17 -1.26029e+17 -1.50001e+17)
(-1.27253e+17 -3.53305e+17 -1.46732e+17 -3.01053e+17 -9.82257e+16 -1.83892e+17)
(-1.91573e+17 -1.57301e+17 -5.20075e+16 -2.22121e+17 -8.42281e+16 -1.71435e+17)
(-2.08214e+17 -2.10095e+17 1.09577e+17 -7.53544e+16 -6.25758e+16 -4.79204e+16)
(-2.28069e+17 -4.37493e+17 1.45812e+17 -8.01852e+16 -6.22945e+16 -6.93172e+16)
(-2.78533e+17 -5.78152e+17 5.64135e+16 -1.8711e+17 -5.82896e+16 -1.63114e+17)
(-1.90765e+17 -3.00123e+17 -2.75236e+17 -1.59242e+17 -4.93353e+16 -1.87517e+17)
(-1.36628e+17 -4.42921e+17 4.26436e+17 -8.69895e+16 -2.67624e+16 6.92829e+16)
(-4.58734e+17 -1.04377e+18 1.37887e+17 -3.37448e+17 -1.23605e+17 -1.7709e+17)
(-5.98494e+17 -1.26176e+18 3.71421e+16 -4.41044e+17 -1.56236e+17 -2.8607e+17)
(-7.12729e+17 -1.33165e+18 -1.81753e+16 -5.29245e+17 -1.69733e+17 -3.64612e+17)
(-8.04329e+17 -1.31653e+18 -5.89607e+16 -5.99574e+17 -1.73036e+17 -4.24824e+17)
(-8.66561e+17 -1.23852e+18 -9.27298e+16 -6.4645e+17 -1.68261e+17 -4.67907e+17)
(-8.95723e+17 -1.1085e+18 -1.21037e+17 -6.6798e+17 -1.55216e+17 -4.94156e+17)
(-8.91464e+17 -9.34903e+17 -1.43445e+17 -6.66602e+17 -1.32604e+17 -5.03989e+17)
(-8.55544e+17 -7.26905e+17 -1.59875e+17 -6.51821e+17 -9.99723e+16 -4.96315e+17)
(-7.87196e+17 -4.92677e+17 -1.72209e+17 -6.3516e+17 -6.30022e+16 -4.69217e+17)
(-6.7921e+17 -2.41265e+17 -1.73137e+17 -5.98435e+17 -3.65036e+16 -4.21034e+17)
(-5.47425e+17 -2.63604e+16 -1.23042e+17 -4.71988e+17 -3.51204e+16 -3.30074e+17)
(-4.93782e+17 4.33506e+15 4.63778e+15 -2.66301e+17 -5.2995e+16 -1.85506e+17)
(-4.65929e+17 -1.90193e+17 9.75109e+16 -1.35207e+17 -7.36592e+16 -8.82754e+16)
(-4.66287e+17 -3.64021e+17 3.06638e+16 -1.92091e+17 -9.40769e+16 -2.00744e+17)
(-3.04848e+17 -1.99495e+17 -1.90561e+17 -1.87024e+17 -5.618e+16 -2.82943e+17)
(-2.88627e+17 -2.98678e+17 2.79833e+17 -1.17652e+17 -2.63052e+16 -3.20381e+16)
(-8.00745e+17 -6.98599e+17 7.13396e+16 -3.72355e+17 -8.66748e+16 -3.10055e+17)
(-1.07421e+18 -8.18918e+17 -2.09227e+16 -5.01927e+17 -1.02104e+17 -4.66392e+17)
(-1.27942e+18 -8.16066e+17 -6.93641e+16 -6.09735e+17 -9.89102e+16 -5.77395e+17)
(-1.43059e+18 -7.47933e+17 -9.9169e+16 -6.96936e+17 -8.69486e+16 -6.58127e+17)
(-1.52373e+18 -6.39187e+17 -1.19262e+17 -7.58032e+17 -6.9456e+16 -7.11088e+17)
(-1.55603e+18 -5.02495e+17 -1.32758e+17 -7.9037e+17 -4.71823e+16 -7.36595e+17)
(-1.52773e+18 -3.46506e+17 -1.40408e+17 -7.94594e+17 -2.00747e+16 -7.34972e+17)
(-1.44142e+18 -1.794e+17 -1.42383e+17 -7.7509e+17 1.13798e+16 -7.06158e+17)
(-1.30018e+18 -9.82256e+15 -1.39399e+17 -7.38592e+17 4.40117e+16 -6.49834e+17)
(-1.10737e+18 1.51456e+17 -1.28295e+17 -6.82676e+17 6.96644e+16 -5.66908e+17)
(-8.78787e+17 2.76449e+17 -9.1388e+16 -5.7458e+17 7.61685e+16 -4.54115e+17)
(-6.63751e+17 2.95123e+17 -1.41912e+16 -3.77505e+17 5.77441e+16 -2.94178e+17)
(-5.42899e+17 1.309e+17 5.99512e+16 -1.82375e+17 1.95069e+16 -1.06558e+17)
(-4.56915e+17 -7.50929e+16 1.38092e+16 -1.46217e+17 -3.17009e+16 -9.20504e+16)
(-2.57418e+17 -7.31059e+16 -9.35028e+16 -1.50111e+17 -4.10771e+16 -2.23105e+17)
(-2.39367e+17 -1.21044e+17 1.11486e+17 -9.40004e+16 -1.23789e+16 -6.51925e+16)
(-6.59146e+17 -2.55261e+17 -1.82125e+16 -2.65752e+17 -3.65892e+16 -2.70327e+17)
(-9.29496e+17 -2.22816e+17 -9.06766e+16 -3.5342e+17 -3.14973e+16 -4.01267e+17)
(-1.13338e+18 -1.07215e+17 -1.21414e+17 -4.18157e+17 -1.34132e+16 -4.90579e+17)
(-1.27931e+18 3.97764e+16 -1.30312e+17 -4.66743e+17 8.65461e+15 -5.51977e+17)
(-1.36611e+18 1.92373e+17 -1.28037e+17 -4.97461e+17 3.21664e+16 -5.8894e+17)
(-1.39404e+18 3.37558e+17 -1.19354e+17 -5.09268e+17 5.67468e+16 -6.02308e+17)
(-1.36525e+18 4.67592e+17 -1.06066e+17 -5.02975e+17 8.23999e+16 -5.92802e+17)
(-1.28334e+18 5.76296e+17 -8.87752e+16 -4.81326e+17 1.08687e+17 -5.61276e+17)
(-1.15285e+18 6.57315e+17 -6.78179e+16 -4.48348e+17 1.33887e+17 -5.08529e+17)
(-9.79984e+17 7.02694e+17 -4.20263e+16 -4.05581e+17 1.53809e+17 -4.35882e+17)
(-7.78521e+17 6.98214e+17 -4.88147e+15 -3.42029e+17 1.61064e+17 -3.44953e+17)
(-5.76415e+17 6.16188e+17 5.01441e+16 -2.30717e+17 1.48675e+17 -2.31946e+17)
(-4.12424e+17 4.23812e+17 1.04812e+17 -8.34787e+16 1.19979e+17 -9.31833e+16)
(-2.80044e+17 1.62541e+17 8.40953e+16 -3.01611e+15 7.59308e+16 3.78097e+16)
(-1.40219e+17 1.43652e+16 -2.70371e+15 -3.17743e+16 1.57707e+16 -2.98367e+16)
(-1.14955e+17 -1.62504e+16 1.30684e+16 -8.72004e+16 1.95301e+16 -8.38729e+16)
(-2.95801e+17 2.73146e+16 -8.64125e+16 -1.80971e+17 2.39466e+16 -1.73876e+17)
(-4.33128e+17 1.91902e+17 -1.44659e+17 -1.96171e+17 4.47924e+16 -2.22725e+17)
(-5.26199e+17 4.09225e+17 -1.55338e+17 -1.78603e+17 6.86674e+16 -2.386e+17)
(-5.70414e+17 6.23892e+17 -1.41205e+17 -1.45569e+17 8.86747e+16 -2.35857e+17)
(-5.70926e+17 8.10438e+17 -1.1664e+17 -1.03479e+17 1.05244e+17 -2.20214e+17)
(-5.36475e+17 9.58705e+17 -8.79211e+16 -5.60484e+16 1.20064e+17 -1.94288e+17)
(-4.7517e+17 1.06416e+18 -5.71882e+16 -6.67412e+15 1.3416e+17 -1.60229e+17)
(-3.9373e+17 1.12366e+18 -2.50528e+16 4.0867e+16 1.47724e+17 -1.20242e+17)
(-2.98024e+17 1.13401e+18 8.26123e+15 8.26665e+16 1.6004e+17 -7.62219e+16)
(-1.94271e+17 1.09119e+18 4.29108e+16 1.16056e+17 1.69021e+17 -2.96288e+16)
(-9.18845e+16 9.89687e+17 8.02149e+16 1.43599e+17 1.7048e+17 1.80886e+16)
(-6.57926e+15 8.22347e+17 1.21111e+17 1.78069e+17 1.59185e+17 6.60637e+16)
(4.28262e+16 5.84527e+17 1.56859e+17 2.28468e+17 1.34567e+17 1.17204e+17)
(4.9476e+16 3.00527e+17 1.54811e+17 2.46725e+17 1.04795e+17 1.61196e+17)
(4.78143e+16 7.66185e+16 9.14626e+16 1.44432e+17 6.84567e+16 1.50819e+17)
(1.69718e+16 -2.66984e+16 1.78337e+16 -3.23466e+16 2.69248e+16 -5.31125e+16)
(3.49016e+16 4.24284e+16 -8.38606e+16 -1.01902e+17 8.16959e+16 -9.44934e+16)
(2.72208e+16 2.74995e+17 -1.52311e+17 -1.27896e+17 1.09382e+17 -8.25534e+16)
(6.45254e+16 5.3923e+17 -1.48991e+17 -5.93977e+16 1.33162e+17 -1.85574e+16)
(1.60426e+17 7.66865e+17 -1.15996e+17 4.19121e+16 1.40878e+17 6.06973e+16)
(2.94515e+17 9.37939e+17 -7.63244e+16 1.53531e+17 1.38473e+17 1.42672e+17)
(4.41276e+17 1.05275e+18 -3.77733e+16 2.63998e+17 1.32147e+17 2.219e+17)
(5.81315e+17 1.11517e+18 -1.50014e+15 3.65874e+17 1.25211e+17 2.94258e+17)
(7.01868e+17 1.12761e+18 3.29417e+16 4.53152e+17 1.18951e+17 3.55805e+17)
(7.94379e+17 1.09075e+18 6.58935e+16 5.20632e+17 1.13572e+17 4.03211e+17)
(8.52292e+17 1.00425e+18 9.72111e+16 5.64465e+17 1.08338e+17 4.34271e+17)
(8.69036e+17 8.67958e+17 1.26082e+17 5.83682e+17 1.01247e+17 4.47611e+17)
(8.36312e+17 6.84466e+17 1.49976e+17 5.82879e+17 8.9336e+16 4.41745e+17)
(7.43263e+17 4.63876e+17 1.61495e+17 5.6908e+17 7.18872e+16 4.14859e+17)
(5.7254e+17 2.34217e+17 1.41142e+17 5.17568e+17 5.66572e+16 3.59593e+17)
(2.54025e+17 6.11064e+16 7.31444e+16 2.59286e+17 6.82387e+16 2.11909e+17)
(1.49419e+17 -7.63701e+16 9.15796e+16 9.82912e+16 -1.62703e+16 9.02149e+16)
(3.08938e+17 -1.12906e+17 1.79261e+16 6.489e+16 5.14078e+16 3.8968e+16)
(3.14245e+17 7.94639e+16 -9.79842e+16 -7.54073e+16 9.90909e+16 -4.78754e+16)
(3.55844e+17 3.50386e+17 -9.69819e+16 -4.74111e+16 1.46421e+17 5.8199e+16)
(5.08481e+17 5.35048e+17 -5.06614e+16 5.49259e+16 1.51555e+17 1.8642e+17)
(7.27669e+17 6.2725e+17 -4.08817e+15 1.79086e+17 1.30817e+17 3.08404e+17)
(9.60206e+17 6.52196e+17 3.21491e+16 3.04815e+17 1.01349e+17 4.18866e+17)
(1.17041e+18 6.31518e+17 5.98491e+16 4.21653e+17 7.15504e+16 5.14296e+17)
(1.33839e+18 5.7742e+17 8.21276e+16 5.22643e+17 4.46237e+16 5.90495e+17)
(1.45302e+18 4.95814e+17 1.00739e+17 6.02161e+17 2.17759e+16 6.43397e+17)
(1.50721e+18 3.89851e+17 1.15899e+17 6.55802e+17 3.42524e+15 6.70013e+17)
(1.49549e+18 2.62832e+17 1.26267e+17 6.81015e+17 -1.06366e+16 6.68325e+17)
(1.41226e+18 1.21963e+17 1.27993e+17 6.77875e+17 -2.0769e+16 6.35711e+17)
(1.24805e+18 -1.51921e+16 1.12414e+17 6.46954e+17 -2.52386e+16 5.66156e+17)
(9.7048e+17 -1.08318e+17 5.94673e+16 5.65585e+17 -1.53078e+16 4.42999e+17)
(4.04423e+17 -6.84464e+16 -7.27266e+16 2.59327e+17 2.93766e+16 1.96434e+17)
(3.21112e+17 -1.62136e+17 1.90595e+17 2.08784e+17 -5.96584e+16 2.88043e+17)
(4.72331e+17 -3.38855e+17 5.72789e+16 1.72491e+17 -6.35274e+16 1.73931e+17)
(4.32485e+17 -2.18418e+17 -5.21961e+16 -1.6964e+16 -1.64519e+16 2.45783e+14)
(4.12454e+17 3.52316e+16 -4.66137e+16 -6.37411e+16 4.87324e+16 -5.18184e+15)
(4.64313e+17 1.79266e+17 2.50483e+16 6.57506e+15 9.59379e+16 1.43873e+17)
(6.35959e+17 1.68967e+17 8.08931e+16 8.23054e+16 7.89636e+16 2.63006e+17)
(8.46748e+17 7.09222e+16 1.09037e+17 1.5633e+17 3.91787e+16 3.56635e+17)
(1.04144e+18 -6.17383e+16 1.19341e+17 2.23427e+17 -3.45476e+15 4.3117e+17)
(1.19554e+18 -2.0202e+17 1.20557e+17 2.80639e+17 -4.20736e+16 4.87104e+17)
(1.29914e+18 -3.37898e+17 1.16981e+17 3.25314e+17 -7.42536e+16 5.224e+17)
(1.34732e+18 -4.63221e+17 1.09602e+17 3.54857e+17 -9.85917e+16 5.34885e+17)
(1.33636e+18 -5.72365e+17 9.73381e+16 3.67182e+17 -1.13899e+17 5.22684e+17)
(1.26212e+18 -6.55612e+17 7.64372e+16 3.60737e+17 -1.18523e+17 4.82642e+17)
(1.11572e+18 -6.90715e+17 3.73194e+16 3.32188e+17 -1.08519e+17 4.06962e+17)
(8.63138e+17 -6.20608e+17 -4.8272e+16 2.64748e+17 -7.61401e+16 2.78371e+17)
(3.41768e+17 -2.74455e+17 -2.90032e+17 9.894e+16 -3.18346e+16 7.57614e+16)
(3.3053e+17 -2.8709e+17 3.10782e+17 1.53153e+17 -5.5611e+16 3.36713e+17)
(4.36221e+17 -5.97086e+17 2.93571e+16 5.18641e+16 -1.42031e+17 1.6779e+17)
(3.5374e+17 -5.09012e+17 -8.88363e+16 -9.0215e+16 -1.29711e+17 3.15119e+16)
(2.76843e+17 -2.45376e+17 -9.39168e+16 -1.60084e+17 -9.3634e+16 -8.02625e+16)
(2.61857e+17 -8.06382e+16 3.68463e+16 -6.54552e+16 -3.82384e+16 1.55794e+16)
(2.9172e+17 -1.51055e+17 1.32728e+17 7.72746e+15 -1.4581e+16 1.25347e+17)
(3.75763e+17 -3.47488e+17 1.61447e+17 1.07915e+16 -4.33736e+16 1.67818e+17)
(4.51648e+17 -5.7375e+17 1.55757e+17 -1.04214e+16 -8.14872e+16 1.79788e+17)
(4.98178e+17 -7.8467e+17 1.36865e+17 -4.14171e+16 -1.16164e+17 1.75773e+17)
(5.14655e+17 -9.64086e+17 1.13589e+17 -7.57998e+16 -1.43945e+17 1.59974e+17)
(5.04075e+17 -1.10535e+18 8.76853e+16 -1.10895e+17 -1.62959e+17 1.33692e+17)
(4.67729e+17 -1.20228e+18 5.83254e+16 -1.4591e+17 -1.71422e+17 9.73682e+16)
(4.05019e+17 -1.24419e+18 2.2421e+16 -1.81322e+17 -1.67161e+17 4.97525e+16)
(3.12569e+17 -1.20648e+18 -2.94179e+16 -2.19653e+17 -1.46489e+17 -1.38624e+16)
(1.81732e+17 -1.01979e+18 -1.31744e+17 -2.59225e+17 -1.05943e+17 -9.80232e+16)
(2.69043e+16 -4.3812e+17 -4.50222e+17 -1.64913e+17 -8.6345e+16 -1.32736e+17)
(8.4592e+16 -3.82695e+17 3.82643e+17 -6.53808e+16 -7.42274e+15 1.65458e+17)
(4.90317e+15 -7.86878e+17 -1.11648e+16 -3.11504e+17 -1.30972e+17 -5.52269e+16)
(-1.93366e+16 -6.98554e+17 -1.40587e+17 -3.71573e+17 -1.40998e+17 -1.2832e+17)
(-1.29018e+16 -4.3026e+17 -1.7293e+17 -3.7182e+17 -1.3399e+17 -1.6061e+17)
(-3.34413e+16 -1.95062e+17 -7.7403e+16 -2.54431e+17 -1.252e+17 -1.34088e+17)
(-3.39711e+16 -2.17064e+17 9.42678e+16 -7.11157e+16 -1.05404e+17 1.02031e+16)
(-5.73033e+16 -4.50617e+17 1.53066e+17 -4.39064e+16 -1.15637e+17 1.70842e+16)
(-1.18953e+17 -7.08897e+17 1.43394e+17 -1.22952e+17 -1.41478e+17 -3.97612e+16)
(-2.16869e+17 -9.32175e+17 1.14087e+17 -2.31742e+17 -1.61783e+17 -1.14035e+17)
(-3.30342e+17 -1.1079e+18 8.25997e+16 -3.4415e+17 -1.74675e+17 -1.92144e+17)
(-4.41377e+17 -1.23522e+18 5.09628e+16 -4.489e+17 -1.79553e+17 -2.68127e+17)
(-5.40372e+17 -1.31087e+18 1.78807e+16 -5.40946e+17 -1.75396e+17 -3.37848e+17)
(-6.21948e+17 -1.32565e+18 -1.91789e+16 -6.17995e+17 -1.61293e+17 -3.98583e+17)
(-6.79046e+17 -1.25688e+18 -6.81199e+16 -6.7803e+17 -1.36427e+17 -4.48089e+17)
(-6.78575e+17 -1.03986e+18 -1.59715e+17 -6.96026e+17 -1.0315e+17 -4.72159e+17)
(-3.67609e+17 -4.41082e+17 -4.40276e+17 -3.83469e+17 -1.06905e+17 -3.28701e+17)
(-2.84707e+17 -3.59906e+17 3.3394e+17 -3.05807e+17 5.08248e+16 -1.27005e+17)
(-6.13995e+17 -7.41903e+17 -3.13622e+16 -6.70877e+17 -4.46139e+16 -3.53819e+17)
(-5.82045e+17 -6.70547e+17 -1.50668e+17 -6.8782e+17 -6.24515e+16 -3.79198e+17)
(-4.61351e+17 -4.40775e+17 -1.87957e+17 -6.30066e+17 -6.21182e+16 -3.48258e+17)
(-3.20982e+17 -1.98395e+17 -1.49955e+17 -4.70326e+17 -6.81331e+16 -2.62293e+17)
(-2.80057e+17 -1.28744e+17 -2.52076e+16 -2.3406e+17 -8.30228e+16 -1.18155e+17)
(-3.04774e+17 -2.97995e+17 7.41529e+16 -9.54616e+16 -9.81325e+16 -2.73629e+16)
(-3.91952e+17 -5.35365e+17 7.41377e+16 -1.59328e+17 -1.34954e+17 -1.24518e+17)
(-5.55278e+17 -7.09213e+17 4.58584e+16 -2.95001e+17 -1.53381e+17 -2.43449e+17)
(-7.42429e+17 -8.23401e+17 2.10074e+16 -4.39478e+17 -1.57322e+17 -3.57398e+17)
(-9.14363e+17 -8.93558e+17 -4.2665e+14 -5.72406e+17 -1.51904e+17 -4.59192e+17)
(-1.05351e+18 -9.23974e+17 -2.17618e+16 -6.86477e+17 -1.39309e+17 -5.43442e+17)
(-1.14997e+18 -9.09639e+17 -4.53125e+16 -7.77432e+17 -1.21447e+17 -6.04796e+17)
(-1.18774e+18 -8.34847e+17 -7.64883e+16 -8.38035e+17 -1.01408e+17 -6.35114e+17)
(-1.10471e+18 -6.59388e+17 -1.31945e+17 -8.27086e+17 -8.59607e+16 -6.0878e+17)
(-5.57759e+17 -2.69632e+17 -2.65897e+17 -4.44989e+17 -9.8596e+16 -3.99304e+17)
(-4.79641e+17 -2.07914e+17 1.834e+17 -4.10124e+17 8.9192e+16 -3.32281e+17)
(-8.99801e+17 -4.35796e+17 -1.82847e+16 -7.70931e+17 5.23274e+16 -4.83818e+17)
(-8.6128e+17 -3.98643e+17 -9.95544e+16 -7.81449e+17 3.38272e+16 -4.86285e+17)
(-6.96687e+17 -2.55724e+17 -1.26149e+17 -7.00743e+17 3.13e+16 -4.31148e+17)
(-4.93833e+17 -9.44327e+16 -1.0925e+17 -5.50083e+17 3.15083e+16 -3.36449e+17)
(-3.27742e+17 -1.18694e+16 -4.36248e+16 -3.16409e+17 2.35406e+16 -1.94459e+17)
(-2.95223e+17 -1.07067e+17 2.9955e+16 -1.16826e+17 6.80842e+15 -3.41919e+16)
(-3.86386e+17 -2.89065e+17 2.4856e+16 -1.45375e+17 -3.33157e+16 -5.16139e+16)
(-5.40661e+17 -3.98088e+17 -5.47811e+15 -3.13426e+17 -9.57721e+16 -2.19271e+17)
(-7.2421e+17 -4.3186e+17 -2.11669e+16 -4.50586e+17 -1.15548e+17 -3.48646e+17)
(-8.89575e+17 -4.28825e+17 -2.94655e+16 -5.58612e+17 -1.13469e+17 -4.47512e+17)
(-1.01774e+18 -4.03768e+17 -3.82984e+16 -6.41372e+17 -1.01044e+17 -5.19027e+17)
(-1.0998e+18 -3.56862e+17 -4.94441e+16 -6.97576e+17 -8.51193e+16 -5.61202e+17)
(-1.11829e+18 -2.81424e+17 -6.49983e+16 -7.17939e+17 -7.23005e+16 -5.65843e+17)
(-1.01173e+18 -1.68253e+17 -8.26793e+16 -6.614e+17 -7.03223e+16 -5.09592e+17)
(-5.02714e+17 -5.05771e+16 -3.72041e+16 -3.47973e+17 -6.82711e+16 -3.36503e+17)
(-4.02344e+17 -4.35518e+16 2.15661e+16 -3.20738e+17 8.39367e+16 -3.35893e+17)
(-7.05152e+17 -9.86908e+16 1.708e+15 -5.46712e+17 1.01089e+17 -3.76885e+17)
(-6.84627e+17 -8.74747e+16 -3.8924e+16 -5.55366e+17 8.87242e+16 -3.68261e+17)
(-5.50417e+17 -2.82527e+16 -5.46488e+16 -4.76933e+17 8.70437e+16 -3.18464e+17)
(-3.80379e+17 3.97803e+16 -4.75976e+16 -3.55232e+17 9.42887e+16 -2.43269e+17)
(-2.3331e+17 7.45687e+16 -1.62377e+16 -1.95137e+17 1.01178e+17 -1.49595e+17)
(-1.69785e+17 2.78974e+16 2.37994e+16 -3.70018e+16 1.04105e+17 -4.16816e+16)
(-2.14952e+17 -1.00485e+17 1.2815e+16 -2.74465e+16 9.22063e+16 3.86604e+16)
(-3.50729e+17 -1.70215e+17 -5.26692e+16 -2.29793e+17 2.10817e+16 -7.48476e+16)
(-4.62034e+17 -1.36236e+17 -6.66572e+16 -3.91404e+17 -5.59883e+16 -2.25158e+17)
(-5.14982e+17 -8.02419e+16 -6.37973e+16 -4.26018e+17 -7.20344e+16 -2.83007e+17)
(-5.34059e+17 -1.62728e+16 -6.0305e+16 -4.23122e+17 -6.79598e+16 -3.00827e+17)
(-5.22718e+17 5.20206e+16 -5.8162e+16 -3.95745e+17 -5.79709e+16 -2.91165e+17)
(-4.73167e+17 1.24362e+17 -5.82272e+16 -3.38978e+17 -5.03972e+16 -2.54082e+17)
(-3.64187e+17 1.88456e+17 -4.83579e+16 -2.32095e+17 -5.03755e+16 -1.84739e+17)
(-1.70113e+17 1.07677e+17 1.11135e+17 -1.05707e+17 -2.36377e+16 -1.27901e+17)
(4.64458e+16 1.82822e+16 -3.50047e+15 -2.71643e+16 3.33046e+16 -5.67278e+16)
(1.48016e+17 3.04029e+16 5.2581e+16 -3.36006e+15 5.46589e+16 3.70193e+16)
(1.56204e+17 3.03362e+16 4.87006e+16 -5.18205e+15 5.16279e+16 4.47358e+16)
(2.02151e+17 4.72474e+16 4.83825e+16 2.73013e+16 5.21868e+16 6.29555e+16)
(2.51843e+17 6.7063e+16 5.80866e+16 7.01524e+16 5.77027e+16 8.50548e+16)
(2.63661e+17 7.74269e+16 7.76034e+16 1.08263e+17 6.48411e+16 9.83939e+16)
(1.97151e+17 6.43807e+16 9.8679e+16 1.23199e+17 7.07184e+16 9.47577e+16)
(4.2189e+16 1.48484e+16 9.45091e+16 6.84907e+16 7.23429e+16 6.47834e+16)
(-9.8018e+16 -4.89031e+16 3.16166e+16 -6.68251e+16 5.13372e+16 1.95966e+16)
(-1.21815e+17 -6.26978e+16 -2.45731e+16 -1.63391e+17 -7.90909e+15 -6.10494e+16)
(-1.0066e+16 -2.66176e+16 -3.88168e+16 -1.17861e+17 -2.23715e+16 -3.39049e+16)
(1.26607e+17 1.70385e+16 -3.93992e+16 -4.54017e+16 -2.37378e+16 2.09052e+16)
(2.68633e+17 6.2256e+16 -3.55904e+16 3.65261e+16 -2.12023e+16 8.62433e+16)
(4.10363e+17 1.08278e+17 -3.07541e+16 1.25981e+17 -1.90048e+16 1.56532e+17)
(5.21483e+17 1.48349e+17 -1.79248e+16 2.15122e+17 -1.86848e+16 2.16527e+17)
(2.76594e+17 8.26026e+16 7.53247e+16 1.24174e+17 -8.85507e+14 1.09618e+17)
(7.95513e+16 1.53608e+17 3.01433e+16 6.63803e+16 8.14715e+15 8.93069e+16)
(2.59306e+17 3.42419e+17 8.40317e+16 1.40002e+17 5.07216e+16 1.36579e+17)
(5.1688e+17 3.81562e+17 8.6456e+16 2.30097e+17 6.07085e+16 2.33389e+17)
(7.28046e+17 3.76244e+17 8.50207e+16 3.10934e+17 7.25346e+16 3.19227e+17)
(8.9231e+17 3.48585e+17 8.3811e+16 3.78948e+17 8.38057e+16 3.88106e+17)
(1.01339e+18 3.03488e+17 8.18105e+16 4.3381e+17 9.14443e+16 4.38524e+17)
(1.09162e+18 2.4174e+17 7.59557e+16 4.7689e+17 9.3748e+16 4.67581e+17)
(1.12074e+18 1.69274e+17 6.06565e+16 5.01781e+17 9.63629e+16 4.68559e+17)
(1.06713e+18 1.15078e+17 2.79617e+16 4.65514e+17 1.12414e+17 4.25584e+17)
(7.7798e+17 1.21449e+17 -5.45547e+16 2.87795e+17 1.12155e+17 2.64446e+17)
(2.50695e+17 1.31528e+17 -1.30561e+17 2.5111e+16 4.17949e+16 -4.25914e+15)
(-1.62212e+14 1.49715e+17 -8.89681e+16 -2.55721e+16 2.14945e+16 1.65078e+15)
(1.24211e+17 2.24135e+17 -2.60186e+16 7.54966e+16 2.05379e+16 9.71556e+16)
(4.06341e+17 3.01535e+17 4.05912e+15 2.24961e+17 1.90386e+16 2.09098e+17)
(6.13722e+17 3.34623e+17 -1.87729e+16 3.46196e+17 7.81479e+15 2.85889e+17)
(3.62172e+17 1.66735e+17 -1.04997e+17 2.22621e+17 -6.32313e+15 2.18633e+17)
(6.93178e+17 4.13267e+17 2.14795e+17 4.06122e+17 3.85127e+16 4.8897e+17)
(1.42102e+18 8.972e+17 2.01498e+17 7.17494e+17 1.0296e+17 6.92887e+17)
(1.68397e+18 9.73802e+17 1.65715e+17 7.96009e+17 1.19093e+17 7.73274e+17)
(1.79817e+18 9.60428e+17 1.39281e+17 8.42311e+17 1.3661e+17 8.14258e+17)
(1.81499e+18 9.0317e+17 1.16844e+17 8.63175e+17 1.52426e+17 8.20245e+17)
(1.75064e+18 8.111e+17 9.43347e+16 8.57659e+17 1.61755e+17 7.90597e+17)
(1.61407e+18 6.89584e+17 6.99732e+16 8.28958e+17 1.62221e+17 7.22581e+17)
(1.41087e+18 5.4308e+17 4.37399e+16 7.71898e+17 1.63941e+17 6.12114e+17)
(1.14137e+18 3.75263e+17 1.0721e+16 6.38036e+17 1.9093e+17 4.62197e+17)
(8.53331e+17 2.4507e+17 -7.07712e+16 4.02456e+17 2.05924e+17 2.72583e+17)
(5.12794e+17 2.09608e+17 -1.35974e+17 1.4076e+17 1.18738e+17 1.65027e+16)
(3.02436e+17 2.42177e+17 -3.93378e+15 8.54626e+16 7.37809e+16 8.04575e+16)
(3.40716e+17 3.42288e+17 1.19463e+17 1.73553e+17 8.55637e+16 2.18819e+17)
(5.76053e+17 4.80742e+17 1.46764e+17 3.38025e+17 8.33168e+16 3.17282e+17)
(7.45668e+17 5.62561e+17 5.8685e+16 4.77337e+17 6.05077e+16 3.60404e+17)
(4.32191e+17 2.89747e+17 -2.63999e+17 3.06593e+17 5.36744e+15 2.78025e+17)
(6.958e+17 3.92626e+17 5.02423e+17 4.65148e+17 5.98497e+16 5.86628e+17)
(1.32944e+18 8.44006e+17 2.62197e+17 7.70261e+17 8.78082e+16 7.17593e+17)
(1.52776e+18 9.02936e+17 1.62944e+17 8.51882e+17 9.61391e+16 7.66601e+17)
(1.57746e+18 8.83429e+17 1.03323e+17 9.04655e+17 9.68605e+16 7.81642e+17)
(1.53716e+18 8.29309e+17 5.71856e+16 9.32482e+17 9.33159e+16 7.6509e+17)
(1.42724e+18 7.46951e+17 1.6102e+16 9.31728e+17 8.51209e+16 7.16326e+17)
(1.25862e+18 6.39908e+17 -2.23141e+16 9.01909e+17 7.24992e+16 6.33464e+17)
(1.03816e+18 5.11586e+17 -5.69243e+16 8.38778e+17 6.29119e+16 5.15559e+17)
(7.74984e+17 3.6132e+17 -9.08707e+16 7.16026e+17 7.38725e+16 3.74217e+17)
(5.04359e+17 2.09919e+17 -1.43862e+17 4.9751e+17 9.89485e+16 2.11686e+17)
(3.05332e+17 1.3461e+17 -1.92593e+17 2.4891e+17 8.23348e+16 1.71981e+16)
(1.05783e+17 1.45918e+17 -7.31515e+16 9.07698e+16 4.29557e+16 -7.607e+16)
(3.80255e+16 2.00197e+17 1.59187e+17 1.07992e+17 1.00186e+17 9.32522e+16)
(1.30268e+17 2.81741e+17 2.27887e+17 1.72395e+17 1.43751e+17 1.4501e+17)
(2.28681e+17 3.30554e+17 9.6051e+16 2.45279e+17 1.34742e+17 1.30414e+17)
(1.19726e+17 1.6791e+17 -3.7796e+17 1.29607e+17 4.7017e+16 4.26275e+16)
(2.93881e+17 1.73851e+17 6.65668e+17 2.87291e+17 4.24153e+16 3.87505e+17)
(4.38556e+17 3.47463e+17 2.71936e+17 4.29441e+17 5.44247e+16 3.65326e+17)
(4.37059e+17 3.2129e+17 1.11758e+17 4.7003e+17 5.66444e+16 3.37693e+17)
(3.70459e+17 2.67279e+17 1.97547e+16 4.96393e+17 3.83412e+16 3.0419e+17)
(2.70799e+17 2.1082e+17 -4.58338e+16 5.11129e+17 1.16347e+16 2.61862e+17)
(1.54677e+17 1.53193e+17 -9.85008e+16 5.11335e+17 -1.82625e+16 2.09048e+17)
(3.15437e+16 9.43126e+16 -1.42896e+17 4.95294e+17 -4.82853e+16 1.44544e+17)
(-9.33402e+16 3.50967e+16 -1.79308e+17 4.59677e+17 -7.29919e+16 6.82393e+16)
(-2.14078e+17 -2.60601e+16 -2.08408e+17 3.92218e+17 -8.19619e+16 -1.22099e+16)
(-3.11509e+17 -8.70218e+16 -2.38408e+17 2.70776e+17 -7.17026e+16 -8.72295e+16)
(-3.52813e+17 -1.18277e+17 -2.56027e+17 1.03933e+17 -6.92755e+16 -1.69271e+17)
(-3.6143e+17 -7.45713e+16 -1.6608e+17 -8.66348e+15 -9.6763e+16 -2.49534e+17)
(-4.17764e+17 -1.43139e+16 7.82204e+16 6.81184e+15 -5.28966e+16 -1.40489e+17)
(-4.03144e+17 1.9124e+16 2.28248e+17 6.13516e+16 8.30292e+16 7.97814e+15)
(-3.27141e+17 2.29581e+16 1.03365e+17 3.59235e+16 1.38592e+17 -8.22346e+16)
(-2.11432e+17 4.01882e+15 -3.5998e+17 -5.63296e+16 7.18926e+16 -2.14136e+17)
(-1.3943e+17 -7.64274e+16 6.24337e+17 5.67242e+16 9.9256e+15 1.04891e+17)
(-5.05481e+17 -2.32076e+17 2.20108e+17 -1.40706e+15 2.25502e+16 -7.23039e+16)
(-7.61907e+17 -3.79961e+17 3.31206e+16 -5.01624e+16 2.08123e+16 -1.95384e+17)
(-9.90837e+17 -4.99639e+17 -7.35645e+16 -9.89768e+16 -7.84513e+15 -2.96326e+17)
(-1.18415e+18 -5.84811e+17 -1.42826e+17 -1.41801e+17 -4.73623e+16 -3.8027e+17)
(-1.32961e+18 -6.38021e+17 -1.91958e+17 -1.77193e+17 -8.94504e+16 -4.48512e+17)
(-1.42004e+18 -6.61886e+17 -2.28408e+17 -2.04878e+17 -1.29398e+17 -5.01144e+17)
(-1.45284e+18 -6.57835e+17 -2.54412e+17 -2.26304e+17 -1.62561e+17 -5.38059e+17)
(-1.42749e+18 -6.28643e+17 -2.69886e+17 -2.47088e+17 -1.82709e+17 -5.56241e+17)
(-1.33941e+18 -5.78976e+17 -2.76332e+17 -2.78164e+17 -1.85507e+17 -5.49182e+17)
(-1.18194e+18 -5.06401e+17 -2.66749e+17 -3.23392e+17 -1.81324e+17 -5.18345e+17)
(-9.79958e+17 -3.91873e+17 -1.99642e+17 -3.41204e+17 -1.9834e+17 -4.7224e+17)
(-8.44863e+17 -2.51416e+17 -1.51224e+16 -2.60411e+17 -2.1435e+17 -3.88046e+17)
(-7.66353e+17 -1.77376e+17 1.84009e+17 -9.39721e+16 -1.05369e+17 -1.42639e+17)
(-6.491e+17 -1.66644e+17 1.06015e+17 -5.37702e+16 3.65938e+16 -1.13302e+17)
(-3.62434e+17 -8.03932e+16 -2.44038e+17 -1.25563e+17 4.10016e+16 -3.03923e+17)
(-3.31981e+17 -2.08554e+17 4.45803e+17 -6.87679e+16 -1.01025e+16 -7.12635e+16)
(-9.27458e+17 -5.50724e+17 1.1763e+17 -2.41181e+17 -1.33469e+16 -3.28016e+17)
(-1.34745e+18 -7.87166e+17 -6.06732e+16 -3.7978e+17 -2.04857e+16 -5.13709e+17)
(-1.69431e+18 -9.6271e+17 -1.57173e+17 -5.13225e+17 -4.6498e+16 -6.62118e+17)
(-1.96128e+18 -1.08036e+18 -2.08485e+17 -6.29104e+17 -8.09083e+16 -7.79365e+17)
(-2.138e+18 -1.14506e+18 -2.35398e+17 -7.2137e+17 -1.16961e+17 -8.65728e+17)
(-2.22074e+18 -1.16102e+18 -2.48414e+17 -7.86706e+17 -1.50235e+17 -9.1967e+17)
(-2.21058e+18 -1.13096e+18 -2.51514e+17 -8.23832e+17 -1.76836e+17 -9.40319e+17)
(-2.11146e+18 -1.05815e+18 -2.44847e+17 -8.34347e+17 -1.92707e+17 -9.26942e+17)
(-1.9282e+18 -9.48908e+17 -2.2721e+17 -8.23227e+17 -1.94745e+17 -8.77243e+17)
(-1.66742e+18 -8.10685e+17 -1.94488e+17 -7.94694e+17 -1.86637e+17 -7.89347e+17)
(-1.35361e+18 -6.43628e+17 -1.31181e+17 -7.35669e+17 -1.86048e+17 -6.69302e+17)
(-1.05193e+18 -4.49583e+17 -1.41954e+16 -5.97835e+17 -2.06858e+17 -5.16224e+17)
(-8.70142e+17 -2.92853e+17 1.43208e+17 -3.78594e+17 -1.95393e+17 -3.12208e+17)
(-6.75673e+17 -2.28646e+17 1.61166e+17 -1.67582e+17 -7.62744e+16 -7.63148e+16)
(-3.55462e+17 -1.09331e+17 -8.22708e+16 -1.31552e+17 -7.60462e+15 -1.94178e+17)
(-2.67156e+17 -1.96343e+17 2.58381e+17 -7.55684e+16 -9.61695e+15 -1.05343e+17)
(-7.5398e+17 -5.25175e+17 4.51927e+15 -2.44134e+17 -5.83409e+16 -3.3866e+17)
(-1.14647e+18 -7.58089e+17 -1.52492e+17 -4.10791e+17 -7.64742e+16 -5.12038e+17)
(-1.47516e+18 -9.25396e+17 -2.2055e+17 -5.74667e+17 -9.09373e+16 -6.43168e+17)
(-1.71259e+18 -1.03004e+18 -2.35747e+17 -7.18934e+17 -1.05571e+17 -7.45033e+17)
(-1.85019e+18 -1.0812e+18 -2.25935e+17 -8.36649e+17 -1.19639e+17 -8.187e+17)
(-1.89284e+18 -1.08639e+18 -2.05436e+17 -9.23734e+17 -1.30824e+17 -8.61661e+17)
(-1.84932e+18 -1.04983e+18 -1.79365e+17 -9.7738e+17 -1.36436e+17 -8.72377e+17)
(-1.72888e+18 -9.74822e+17 -1.4796e+17 -9.96805e+17 -1.33917e+17 -8.50984e+17)
(-1.54129e+18 -8.66736e+17 -1.09363e+17 -9.83643e+17 -1.21621e+17 -7.97557e+17)
(-1.29857e+18 -7.3405e+17 -6.08319e+16 -9.40512e+17 -1.01305e+17 -7.10915e+17)
(-1.02136e+18 -5.84088e+17 1.43963e+15 -8.64633e+17 -8.28577e+16 -5.92053e+17)
(-7.49482e+17 -4.18967e+17 8.18023e+16 -7.35064e+17 -8.21717e+16 -4.47844e+17)
(-5.39027e+17 -2.57801e+17 1.70825e+17 -5.234e+17 -9.19166e+16 -2.70924e+17)
(-4.17308e+17 -1.66565e+17 2.04549e+17 -2.89589e+17 -5.62453e+16 -5.95161e+16)
(-1.80621e+17 -7.50381e+16 8.46079e+16 -8.41346e+16 2.49213e+16 4.56057e+16)
(-9.77383e+16 -1.29676e+17 1.65824e+17 -7.19273e+16 -8.20105e+15 -5.85176e+16)
(-3.10007e+17 -3.3052e+17 -5.21168e+16 -2.04188e+17 -6.32033e+16 -2.49091e+17)
(-5.04795e+17 -4.59986e+17 -2.14337e+17 -2.90068e+17 -1.19718e+17 -3.28917e+17)
(-6.91388e+17 -5.41876e+17 -2.52445e+17 -4.00277e+17 -1.29949e+17 -3.68487e+17)
(-7.82936e+17 -5.63279e+17 -2.24035e+17 -4.91202e+17 -1.24443e+17 -3.88971e+17)
(-7.77585e+17 -5.43492e+17 -1.73326e+17 -5.60934e+17 -1.13782e+17 -3.97421e+17)
(-6.99634e+17 -4.98546e+17 -1.20263e+17 -6.09904e+17 -9.9613e+16 -3.91804e+17)
(-5.7363e+17 -4.36453e+17 -6.97978e+16 -6.37238e+17 -8.08333e+16 -3.7075e+17)
(-4.17935e+17 -3.61155e+17 -2.09236e+16 -6.42324e+17 -5.61957e+16 -3.35454e+17)
(-2.46667e+17 -2.76737e+17 2.88337e+16 -6.25946e+17 -2.53422e+16 -2.8781e+17)
(-7.32444e+16 -1.89487e+17 8.13055e+16 -5.89787e+17 9.85798e+15 -2.28087e+17)