/*--------------------------------*- C++ -*----------------------------------*\
| =========                 |                                                 |
| \\      /  F ield         | OpenFOAM: The Open Source CFD Toolbox           |
|  \\    /   O peration     | Version:  v2012                                 |
|   \\  /    A nd           | Website:  www.openfoam.com                      |
|    \\/     M anipulation  |                                                 |
\*---------------------------------------------------------------------------*/
FoamFile
{
    version     2.0;
    format      ascii;
    class       volScalarField;
    location    "1";
    object      sigmaEq;
}
// * * * * * * * * * * * * * * * * * * * * * * * * * * * * * * * * * * * * * //

dimensions      [1 -1 -2 0 0 0 0];


internalField   nonuniform List<scalar> 
4096
(
2.90132e+17
5.74837e+17
7.14122e+17
7.89834e+17
8.25177e+17
8.26027e+17
7.94343e+17
7.29158e+17
6.22738e+17
4.67367e+17
2.8887e+17
1.8646e+17
3.0129e+17
4.93719e+17
6.15137e+17
3.84903e+17
7.40772e+17
1.2834e+18
1.55713e+18
1.68196e+18
1.71551e+18
1.67462e+18
1.56604e+18
1.3951e+18
1.16815e+18
8.84595e+17
5.37792e+17
3.22574e+17
5.23171e+17
8.25333e+17
9.93934e+17
6.94462e+17
1.09597e+18
1.85163e+18
2.22819e+18
2.38226e+18
2.40042e+18
2.31101e+18
2.12715e+18
1.85996e+18
1.52422e+18
1.13325e+18
7.01128e+17
3.24934e+17
4.49707e+17
8.205e+17
1.01668e+18
7.11119e+17
1.08207e+18
1.85232e+18
2.21961e+18
2.34484e+18
2.32556e+18
2.19821e+18
1.98096e+18
1.68825e+18
1.33761e+18
9.51288e+17
5.66462e+17
2.96207e+17
2.91892e+17
5.2955e+17
7.06959e+17
4.99585e+17
7.45533e+17
1.30997e+18
1.54712e+18
1.5852e+18
1.51612e+18
1.38104e+18
1.20306e+18
1.00265e+18
8.07735e+17
6.61442e+17
6.12932e+17
6.4454e+17
6.20188e+17
4.75803e+17
3.69865e+17
2.37348e+17
3.28407e+17
5.9453e+17
6.95107e+17
7.37727e+17
8.08821e+17
9.20199e+17
1.05042e+18
1.17651e+18
1.28099e+18
1.34956e+18
1.36787e+18
1.31517e+18
1.15412e+18
8.48587e+17
4.55514e+17
1.15591e+17
5.7642e+16
2.01024e+17
4.79415e+17
8.32165e+17
1.18381e+18
1.49065e+18
1.73415e+18
1.90584e+18
2.00001e+18
2.01114e+18
1.93278e+18
1.75687e+18
1.4747e+18
1.08598e+18
6.36512e+17
2.58378e+17
9.5682e+16
2.5353e+17
5.92823e+17
1.00203e+18
1.36979e+18
1.654e+18
1.84991e+18
1.96081e+18
1.98891e+18
1.93437e+18
1.79622e+18
1.57393e+18
1.27154e+18
9.05691e+17
5.2022e+17
2.07954e+17
2.15741e+17
3.37184e+17
4.68041e+17
7.69431e+17
1.04824e+18
1.21591e+18
1.2953e+18
1.3124e+18
1.28107e+18
1.20828e+18
1.09968e+18
9.6399e+17
8.16779e+17
6.75964e+17
5.24512e+17
2.58157e+17
4.56637e+17
6.75197e+17
5.88787e+17
4.68692e+17
5.39844e+17
6.02599e+17
6.58686e+17
7.72379e+17
9.28506e+17
1.09333e+18
1.24404e+18
1.36489e+18
1.43758e+18
1.42538e+18
1.23691e+18
7.3926e+17
7.6085e+17
1.1177e+18
1.00464e+18
6.29119e+17
3.39328e+17
4.27812e+17
7.39348e+17
1.11448e+18
1.47137e+18
1.77602e+18
2.01388e+18
2.17284e+18
2.23408e+18
2.15636e+18
1.83167e+18
1.11264e+18
9.59134e+17
1.41211e+18
1.29631e+18
8.92508e+17
4.64619e+17
4.54216e+17
8.51051e+17
1.27904e+18
1.65431e+18
1.95333e+18
2.17099e+18
2.2999e+18
2.32383e+18
2.20502e+18
1.84361e+18
1.09629e+18
8.71515e+17
1.32133e+18
1.22576e+18
8.72205e+17
4.83714e+17
3.05271e+17
6.11958e+17
9.97195e+17
1.29215e+18
1.4943e+18
1.62266e+18
1.68181e+18
1.66302e+18
1.5407e+18
1.25065e+18
6.92334e+17
5.20346e+17
8.45584e+17
7.91816e+17
5.64331e+17
3.19882e+17
1.5549e+17
3.01026e+17
5.87651e+17
7.64804e+17
8.45022e+17
8.66921e+17
8.52518e+17
8.03965e+17
7.14326e+17
5.65002e+17
2.27289e+17
1.84049e+17
3.75149e+17
3.56397e+17
2.76118e+17
2.32806e+17
2.312e+17
2.31472e+17
3.28959e+17
3.92361e+17
3.50404e+17
2.96957e+17
2.57663e+17
2.62082e+17
3.17482e+17
3.83564e+17
2.7699e+17
1.13295e+17
1.96119e+17
1.95841e+17
2.17944e+17
2.53237e+17
2.72845e+17
2.55013e+17
2.09203e+17
1.70931e+17
1.47444e+17
1.33287e+17
1.72616e+17
2.48157e+17
3.3498e+17
4.01824e+17
2.51308e+17
2.72228e+17
6.28735e+17
7.42671e+17
7.95449e+17
8.15844e+17
8.09124e+17
7.7633e+17
7.27761e+17
6.83769e+17
5.85821e+17
4.08233e+17
3.05074e+17
3.94706e+17
5.56717e+17
6.54599e+17
3.69651e+17
8.48948e+17
1.75538e+18
1.94396e+18
1.95518e+18
1.87256e+18
1.71483e+18
1.4938e+18
1.22763e+18
9.51286e+17
7.75325e+17
6.55474e+17
4.90422e+17
6.62334e+17
9.16955e+17
1.04297e+18
6.93694e+17
1.12714e+18
1.64661e+18
1.75356e+18
1.71816e+18
1.61061e+18
1.44741e+18
1.24128e+18
1.00768e+18
7.57141e+17
5.54399e+17
5.05885e+17
3.40633e+17
4.80053e+17
6.76236e+17
6.49234e+17
7.25657e+17
1.19785e+18
7.73113e+17
6.09109e+17
4.98489e+17
4.47247e+17
4.59654e+17
5.19968e+17
5.98926e+17
6.62153e+17
6.83682e+17
6.41472e+17
4.74354e+17
4.08394e+17
6.09822e+17
4.40609e+17
6.54825e+17
1.11241e+18
7.29264e+17
9.28445e+17
1.19318e+18
1.41023e+18
1.56358e+18
1.65088e+18
1.6706e+18
1.62118e+18
1.50001e+18
1.29968e+18
1.01969e+18
7.81941e+17
8.06855e+17
6.66008e+17
4.98767e+17
8.91989e+17
1.17084e+18
1.64192e+18
2.02542e+18
2.291e+18
2.44212e+18
2.486e+18
2.42814e+18
2.27413e+18
2.03326e+18
1.71929e+18
1.35111e+18
9.92608e+17
8.43805e+17
7.51713e+17
3.10442e+17
5.89999e+17
1.02878e+18
1.51274e+18
1.86915e+18
2.08451e+18
2.17918e+18
2.17299e+18
2.07886e+18
1.90638e+18
1.66833e+18
1.38619e+18
1.08888e+18
8.08564e+17
6.1661e+17
5.62916e+17
2.80876e+17
3.66516e+17
5.9693e+17
9.24583e+17
1.10352e+18
1.12883e+18
1.06029e+18
9.45511e+17
8.14741e+17
6.91193e+17
6.03417e+17
5.81936e+17
6.22499e+17
6.6804e+17
6.49379e+17
5.29675e+17
3.7354e+17
3.0009e+17
3.28682e+17
5.75296e+17
5.91641e+17
4.86941e+17
5.15275e+17
7.27327e+17
9.88331e+17
1.22914e+18
1.42448e+18
1.55944e+18
1.61847e+18
1.58228e+18
1.42344e+18
1.08694e+18
4.52062e+17
5.27409e+17
5.98446e+17
7.37142e+17
7.80503e+17
7.70772e+17
1.05571e+18
1.4482e+18
1.80812e+18
2.09175e+18
2.28574e+18
2.38263e+18
2.37448e+18
2.25327e+18
2.00846e+18
1.59409e+18
8.06413e+17
8.76048e+17
8.22558e+17
7.94361e+17
8.8907e+17
8.08834e+17
1.00786e+18
1.36539e+18
1.67442e+18
1.89731e+18
2.03334e+18
2.08424e+18
2.0496e+18
1.93093e+18
1.73552e+18
1.46437e+18
1.18631e+18
1.11886e+18
7.21879e+17
5.70791e+17
6.72034e+17
5.72607e+17
5.76183e+17
8.15805e+17
9.40681e+17
9.71697e+17
9.48082e+17
8.89337e+17
8.05026e+17
7.07975e+17
6.35246e+17
7.0562e+17
1.3349e+18
1.1191e+18
3.2569e+17
4.11143e+17
5.394e+17
4.78326e+17
1.72462e+17
3.97293e+17
4.39582e+17
3.88861e+17
4.1371e+17
5.20863e+17
6.52481e+17
7.71465e+17
8.51932e+17
8.90854e+17
1.24156e+18
9.45463e+17
7.45776e+17
8.45147e+17
8.23022e+17
7.03068e+17
5.02313e+17
4.917e+17
6.24381e+17
7.39518e+17
9.69239e+17
1.22005e+18
1.43734e+18
1.59766e+18
1.67177e+18
1.57595e+18
1.01295e+18
7.14758e+17
1.15392e+18
1.17699e+18
1.04966e+18
8.60075e+17
6.40257e+17
5.02674e+17
6.02201e+17
7.516e+17
9.07443e+17
1.10458e+18
1.28508e+18
1.42634e+18
1.5039e+18
1.43931e+18
7.03785e+17
3.73329e+17
7.23234e+17
7.16228e+17
6.14144e+17
5.00562e+17
3.99481e+17
3.16275e+17
3.27827e+17
4.40568e+17
5.63598e+17
6.37392e+17
6.97841e+17
7.4583e+17
7.7041e+17
7.26788e+17
3.4184e+17
1.92992e+17
2.88238e+17
2.14592e+17
1.67303e+17
1.70707e+17
2.00943e+17
2.31317e+17
2.5677e+17
2.95003e+17
3.06217e+17
2.43842e+17
2.46019e+17
2.78328e+17
2.69052e+17
2.41024e+17
1.56908e+17
3.15183e+17
5.97737e+17
6.55591e+17
6.80716e+17
6.79568e+17
6.51274e+17
5.90431e+17
5.05523e+17
4.299e+17
4.08823e+17
4.31144e+17
3.834e+17
3.17312e+17
3.22498e+17
3.64004e+17
2.33369e+17
3.26136e+17
7.45715e+17
8.91437e+17
9.43497e+17
9.40819e+17
8.98527e+17
8.2505e+17
7.34503e+17
6.41106e+17
5.4875e+17
4.4061e+17
3.94169e+17
3.88989e+17
5.1432e+17
6.35705e+17
3.33898e+17
6.05062e+17
1.01125e+18
1.12882e+18
1.15227e+18
1.12622e+18
1.06535e+18
9.801e+17
8.85625e+17
7.8978e+17
6.80225e+17
5.3089e+17
2.93092e+17
2.36423e+17
4.39375e+17
6.16909e+17
4.34016e+17
8.48795e+17
1.03047e+18
1.06621e+18
1.06076e+18
1.03664e+18
9.96033e+17
9.40692e+17
8.77445e+17
8.08157e+17
7.14076e+17
5.69143e+17
3.56415e+17
1.74708e+17
3.35782e+17
4.40821e+17
4.25772e+17
9.01895e+17
7.65986e+17
7.07352e+17
7.19515e+17
7.6408e+17
8.06632e+17
8.31841e+17
8.35246e+17
8.12615e+17
7.52316e+17
6.42848e+17
5.02941e+17
3.91507e+17
3.96853e+17
4.0293e+17
3.17054e+17
8.02122e+17
5.65965e+17
5.8188e+17
7.56431e+17
9.25152e+17
1.03776e+18
1.0931e+18
1.09856e+18
1.05896e+18
9.78011e+17
8.6711e+17
7.55442e+17
6.68567e+17
5.92657e+17
4.49838e+17
1.95434e+17
6.42985e+17
5.66527e+17
7.4152e+17
1.03649e+18
1.26788e+18
1.39907e+18
1.44454e+18
1.42415e+18
1.35141e+18
1.23745e+18
1.10128e+18
9.73145e+17
8.70589e+17
7.63822e+17
5.93493e+17
2.61002e+17
4.3898e+17
4.63464e+17
6.45351e+17
9.87284e+17
1.24315e+18
1.37308e+18
1.40823e+18
1.38221e+18
1.315e+18
1.2186e+18
1.10741e+18
9.99964e+17
9.02377e+17
7.88796e+17
6.21073e+17
3.39084e+17
3.24934e+17
3.16385e+17
3.9243e+17
6.94395e+17
8.98558e+17
9.76989e+17
9.83509e+17
9.68607e+17
9.53581e+17
9.41163e+17
9.28636e+17
9.08244e+17
8.59701e+17
7.506e+17
5.59299e+17
2.80145e+17
3.76057e+17
3.83498e+17
3.56057e+17
5.48644e+17
6.3856e+17
6.35657e+17
6.49069e+17
7.31831e+17
8.51564e+17
9.69018e+17
1.06257e+18
1.11509e+18
1.10441e+18
1.00111e+18
7.68956e+17
3.7998e+17
5.71511e+17
6.7187e+17
5.89409e+17
5.62551e+17
5.93169e+17
5.79061e+17
6.89264e+17
9.02251e+17
1.11662e+18
1.2918e+18
1.41871e+18
1.49075e+18
1.49699e+18
1.42061e+18
1.22156e+18
7.69269e+17
7.90514e+17
9.49874e+17
8.38747e+17
6.636e+17
5.39685e+17
4.90652e+17
6.16423e+17
8.84569e+17
1.13767e+18
1.33579e+18
1.48011e+18
1.57061e+18
1.60245e+18
1.56743e+18
1.43202e+18
1.05522e+18
8.86083e+17
1.08237e+18
9.82881e+17
7.41002e+17
5.10292e+17
4.06043e+17
4.31219e+17
6.58078e+17
8.90529e+17
1.06651e+18
1.19402e+18
1.27781e+18
1.31305e+18
1.29053e+18
1.18931e+18
1.03489e+18
7.2978e+17
9.41791e+17
9.11661e+17
7.18613e+17
4.80449e+17
3.80062e+17
3.67908e+17
5.24575e+17
7.41647e+17
8.94024e+17
9.89778e+17
1.04363e+18
1.0515e+18
9.96671e+17
8.47696e+17
7.78978e+17
3.95995e+17
6.96028e+17
7.02388e+17
5.82905e+17
4.20688e+17
2.77324e+17
2.31248e+17
3.95372e+17
5.73332e+17
7.04842e+17
8.0521e+17
8.74945e+17
9.07917e+17
8.87449e+17
7.68398e+17
4.43161e+17
2.67543e+17
4.33061e+17
5.02073e+17
5.21626e+17
5.12465e+17
4.81024e+17
4.18439e+17
3.28843e+17
2.44586e+17
2.56923e+17
2.16375e+17
1.76838e+17
1.83338e+17
2.04638e+17
2.10916e+17
1.38825e+17
4.76867e+17
5.26715e+17
5.77326e+17
6.10798e+17
6.3535e+17
6.50376e+17
6.43921e+17
5.40624e+17
2.72439e+17
2.72538e+17
2.82798e+17
4.19537e+17
5.85878e+17
6.95896e+17
7.21803e+17
3.99544e+17
6.59671e+17
9.73797e+17
1.04522e+18
1.05259e+18
1.02478e+18
9.69248e+17
8.79915e+17
7.27432e+17
4.87581e+17
3.64903e+17
3.77237e+17
5.11403e+17
7.489e+17
9.08166e+17
9.26243e+17
4.8061e+17
7.43017e+17
1.19558e+18
1.29512e+18
1.29894e+18
1.24424e+18
1.14289e+18
9.9787e+17
7.95188e+17
5.44585e+17
4.12174e+17
4.3502e+17
4.82548e+17
7.07577e+17
8.50166e+17
8.20122e+17
4.18589e+17
7.1971e+17
1.02098e+18
1.08039e+18
1.06652e+18
1.00481e+18
9.0676e+17
7.81578e+17
6.27448e+17
4.58915e+17
3.94309e+17
4.54612e+17
3.25342e+17
4.46582e+17
5.85178e+17
4.96428e+17
2.81141e+17
6.68142e+17
5.71972e+17
4.87112e+17
4.21729e+17
3.59869e+17
3.11266e+17
3.01551e+17
3.34136e+17
3.95123e+17
4.82793e+17
5.49293e+17
4.65776e+17
1.86241e+17
2.97326e+17
2.05767e+17
2.09281e+17
6.61293e+17
4.34374e+17
3.53224e+17
4.28856e+17
5.27739e+17
6.10422e+17
6.73788e+17
7.17684e+17
7.43106e+17
7.49955e+17
7.16734e+17
5.96897e+17
3.80352e+17
2.67177e+17
1.77422e+17
1.71323e+17
6.22453e+17
5.94193e+17
6.64795e+17
8.02991e+17
9.22728e+17
1.0005e+18
1.03552e+18
1.03103e+18
9.92655e+17
9.26193e+17
8.23511e+17
6.53456e+17
4.2343e+17
3.14452e+17
2.91047e+17
9.48685e+16
5.16027e+17
6.3311e+17
7.1935e+17
8.07508e+17
8.72669e+17
8.97268e+17
8.81457e+17
8.33506e+17
7.65605e+17
6.91674e+17
6.15873e+17
5.1789e+17
3.923e+17
3.59765e+17
4.15452e+17
2.23024e+17
3.71342e+17
5.37522e+17
6.22002e+17
6.13333e+17
5.87551e+17
5.3685e+17
4.44374e+17
3.14844e+17
1.69589e+17
1.00908e+17
2.13212e+17
3.33186e+17
4.20084e+17
4.94738e+17
5.44444e+17
3.87323e+17
3.29773e+17
2.71517e+17
4.33106e+17
3.96152e+17
3.94875e+17
4.72209e+17
5.35788e+17
5.76433e+17
6.13566e+17
6.54357e+17
6.93499e+17
7.21182e+17
7.27203e+17
7.05917e+17
6.48868e+17
3.98267e+17
3.44104e+17
1.73721e+17
2.69445e+17
2.94423e+17
3.66747e+17
5.89322e+17
7.65935e+17
8.77322e+17
9.47033e+17
9.83835e+17
9.86348e+17
9.53008e+17
8.8353e+17
7.77299e+17
6.40317e+17
3.79863e+17
3.83608e+17
2.15919e+17
2.01828e+17
2.91369e+17
3.41743e+17
5.71163e+17
7.18835e+17
7.78227e+17
7.90479e+17
7.73574e+17
7.2901e+17
6.58731e+17
5.67167e+17
4.57783e+17
3.60958e+17
3.76045e+17
3.53549e+17
2.37524e+17
2.6985e+17
3.34167e+17
1.47275e+17
4.02974e+17
5.21809e+17
4.81551e+17
3.94454e+17
2.96439e+17
1.97464e+17
1.37485e+17
1.76879e+17
2.55058e+17
3.23697e+17
4.20051e+17
2.65696e+17
3.68832e+17
4.4859e+17
4.68798e+17
3.42638e+17
1.51455e+17
3.1901e+17
2.88508e+17
3.44612e+17
4.60644e+17
5.81638e+17
6.92991e+17
7.80295e+17
8.21932e+17
7.75987e+17
4.77442e+17
1.52781e+17
3.20259e+17
3.63725e+17
3.39242e+17
2.66739e+17
1.63578e+17
1.81361e+17
3.24952e+17
4.41422e+17
5.32856e+17
6.07542e+17
6.60348e+17
6.83816e+17
6.65199e+17
5.76182e+17
2.88715e+17
2.78687e+17
5.81293e+17
6.63667e+17
6.80448e+17
6.5847e+17
5.98686e+17
4.47291e+17
2.90482e+17
2.32599e+17
2.44783e+17
2.90176e+17
3.40471e+17
3.98687e+17
4.55329e+17
4.62557e+17
2.30706e+17
5.58309e+17
1.03774e+18
1.07891e+18
1.00813e+18
8.74694e+17
6.92126e+17
5.62333e+17
4.89395e+17
3.27514e+17
4.19219e+17
5.67763e+17
6.80596e+17
7.63251e+17
8.15146e+17
7.82906e+17
4.11126e+17
6.67621e+17
1.02609e+18
1.07329e+18
1.03215e+18
9.43457e+17
8.10979e+17
6.94752e+17
6.44005e+17
4.26418e+17
3.33775e+17
4.47393e+17
5.26299e+17
5.73364e+17
5.92302e+17
5.36414e+17
3.84487e+17
7.68597e+17
7.75527e+17
8.27771e+17
8.52179e+17
8.51821e+17
8.17783e+17
7.73107e+17
7.49536e+17
6.48695e+17
4.32651e+17
4.19643e+17
3.88977e+17
3.74825e+17
3.68291e+17
2.82412e+17
4.22944e+17
9.23959e+17
6.87168e+17
7.32212e+17
8.01102e+17
8.54309e+17
8.81251e+17
8.90903e+17
8.8615e+17
8.19273e+17
6.42213e+17
4.63543e+17
3.90967e+17
3.89512e+17
5.0988e+17
5.59709e+17
5.6827e+17
1.10059e+18
1.06465e+18
1.13268e+18
1.19763e+18
1.23563e+18
1.23949e+18
1.21672e+18
1.16654e+18
1.05456e+18
8.49623e+17
6.00749e+17
4.4549e+17
4.3244e+17
5.88866e+17
7.29212e+17
6.39263e+17
1.14201e+18
1.33066e+18
1.45057e+18
1.53995e+18
1.58917e+18
1.58909e+18
1.54462e+18
1.45641e+18
1.30179e+18
1.05497e+18
7.57279e+17
5.52936e+17
4.87734e+17
5.21737e+17
6.04107e+17
5.19753e+17
9.66608e+17
1.16112e+18
1.30349e+18
1.42022e+18
1.49508e+18
1.51546e+18
1.48542e+18
1.40925e+18
1.27672e+18
1.07512e+18
8.39959e+17
6.82886e+17
6.41746e+17
5.36843e+17
4.27712e+17
3.15469e+17
7.03832e+17
7.70724e+17
9.2073e+17
1.06484e+18
1.161e+18
1.19942e+18
1.18996e+18
1.14297e+18
1.06068e+18
9.48688e+17
8.42535e+17
7.93624e+17
7.7083e+17
6.68325e+17
4.28021e+17
2.04736e+17
4.92896e+17
4.62541e+17
6.71679e+17
8.68775e+17
9.96116e+17
1.0669e+18
1.10233e+18
1.11352e+18
1.1049e+18
1.08607e+18
1.0735e+18
1.0626e+18
9.94069e+17
8.00953e+17
5.18231e+17
2.92733e+17
3.95166e+17
3.83744e+17
6.40705e+17
8.59763e+17
9.97008e+17
1.09007e+18
1.17011e+18
1.23967e+18
1.29169e+18
1.32565e+18
1.34434e+18
1.33288e+18
1.24056e+18
1.00575e+18
6.45664e+17
3.62462e+17
4.04959e+17
2.91153e+17
5.67287e+17
7.6511e+17
8.62144e+17
9.27913e+17
1.00544e+18
1.09108e+18
1.16645e+18
1.22333e+18
1.25913e+18
1.25983e+18
1.18845e+18
9.96314e+17
6.7e+17
3.599e+17
4.44257e+17
2.36298e+17
3.48719e+17
5.41638e+17
5.80528e+17
5.9903e+17
6.55625e+17
7.28482e+17
7.90397e+17
8.35643e+17
8.63311e+17
8.64431e+17
8.18227e+17
6.98395e+17
4.99878e+17
4.24684e+17
4.9902e+17
3.18197e+17
3.21483e+17
3.04219e+17
2.93414e+17
3.18174e+17
4.48125e+17
5.68834e+17
6.48953e+17
7.02322e+17
7.31903e+17
7.34981e+17
7.13299e+17
6.76402e+17
6.29805e+17
5.7417e+17
4.72671e+17
4.62344e+17
3.83307e+17
2.52765e+17
1.69984e+17
2.39117e+17
3.9497e+17
5.27958e+17
6.32385e+17
7.18337e+17
7.82971e+17
8.22689e+17
8.4107e+17
8.43625e+17
8.06022e+17
5.65526e+17
2.75553e+17
4.23424e+17
3.31038e+17
1.87122e+17
9.59511e+16
1.41002e+17
2.19586e+17
2.60022e+17
3.25027e+17
3.9397e+17
4.52343e+17
4.95534e+17
5.2136e+17
5.23256e+17
4.71745e+17
2.77782e+17
1.88805e+17
3.27624e+17
2.5635e+17
1.95431e+17
2.23606e+17
2.81988e+17
3.77602e+17
4.39928e+17
4.51005e+17
4.22322e+17
3.82407e+17
3.45622e+17
3.13211e+17
2.89424e+17
2.66425e+17
1.42015e+17
2.40972e+17
4.29598e+17
3.97207e+17
4.08799e+17
4.44379e+17
3.78451e+17
2.90319e+17
5.32235e+17
5.81164e+17
5.24755e+17
4.55439e+17
4.10712e+17
4.07467e+17
4.41058e+17
4.411e+17
3.06009e+17
3.07439e+17
5.57535e+17
6.38017e+17
7.07641e+17
7.58798e+17
7.15401e+17
5.21443e+17
3.97468e+17
4.34172e+17
3.84178e+17
3.9442e+17
5.2698e+17
7.05973e+17
8.71079e+17
9.26733e+17
5.57005e+17
6.20694e+17
1.19525e+18
1.31089e+18
1.34405e+18
1.33031e+18
1.22067e+18
9.63473e+17
6.35769e+17
4.81208e+17
4.4956e+17
4.69276e+17
6.789e+17
9.72141e+17
1.23036e+18
1.32111e+18
6.89073e+17
8.59024e+17
1.76917e+18
1.95191e+18
1.97832e+18
1.92385e+18
1.76604e+18
1.46236e+18
1.05359e+18
7.45383e+17
6.55418e+17
5.95915e+17
7.06624e+17
1.02727e+18
1.31185e+18
1.38497e+18
6.64693e+17
1.02346e+18
1.88053e+18
2.09484e+18
2.11608e+18
2.03899e+18
1.86163e+18
1.55843e+18
1.15298e+18
8.13461e+17
7.53619e+17
7.12328e+17
6.25738e+17
8.10903e+17
9.90811e+17
9.55472e+17
5.58704e+17
1.14064e+18
1.26468e+18
1.35254e+18
1.31858e+18
1.22282e+18
1.07343e+18
8.63906e+17
6.35684e+17
5.57507e+17
6.80376e+17
7.11708e+17
4.27976e+17
4.73906e+17
5.86766e+17
4.24344e+17
5.82372e+17
1.29012e+18
7.99703e+17
6.74105e+17
6.56402e+17
7.08411e+17
7.92954e+17
8.95806e+17
1.02062e+18
1.14616e+18
1.19857e+18
1.08353e+18
7.26826e+17
4.15927e+17
5.10393e+17
3.265e+17
6.0419e+17
1.32405e+18
1.25661e+18
1.44305e+18
1.68915e+18
1.91515e+18
2.08254e+18
2.18328e+18
2.22008e+18
2.18143e+18
2.02562e+18
1.70098e+18
1.22113e+18
8.11447e+17
8.17879e+17
6.42688e+17
4.76537e+17
1.1317e+18
1.41506e+18
1.8029e+18
2.1453e+18
2.40952e+18
2.57761e+18
2.64696e+18
2.62213e+18
2.49976e+18
2.25877e+18
1.87266e+18
1.36499e+18
9.22758e+17
8.74969e+17
7.9164e+17
3.26153e+17
8.15878e+17
1.08409e+18
1.48725e+18
1.77827e+18
1.95529e+18
2.03334e+18
2.02499e+18
1.94149e+18
1.787e+18
1.55495e+18
1.23961e+18
8.8203e+17
6.65001e+17
7.39729e+17
7.55046e+17
3.5578e+17
5.45073e+17
5.64625e+17
8.67395e+17
1.04695e+18
1.09111e+18
1.05784e+18
9.91701e+17
9.23472e+17
8.70301e+17
8.44109e+17
8.66085e+17
9.5686e+17
1.08657e+18
1.14451e+18
9.82839e+17
5.25081e+17
3.95144e+17
2.48565e+17
4.56647e+17
6.12034e+17
7.61231e+17
9.57571e+17
1.18258e+18
1.41338e+18
1.62191e+18
1.79082e+18
1.91665e+18
1.99598e+18
2.00396e+18
1.87367e+18
1.48859e+18
6.37788e+17
4.1438e+17
4.16337e+17
5.11866e+17
6.45995e+17
8.4487e+17
1.16848e+18
1.49404e+18
1.78517e+18
2.02172e+18
2.19007e+18
2.28662e+18
2.30829e+18
2.23972e+18
2.03857e+18
1.60878e+18
6.56293e+17
4.3197e+17
4.95914e+17
4.65501e+17
5.92172e+17
7.02864e+17
8.97359e+17
1.11213e+18
1.29706e+18
1.4349e+18
1.5219e+18
1.55838e+18
1.54346e+18
1.46994e+18
1.31664e+18
1.0293e+18
5.58976e+17
2.90811e+17
5.17485e+17
4.68505e+17
3.81771e+17
3.82749e+17
3.56254e+17
3.65816e+17
4.27444e+17
5.02466e+17
5.82679e+17
6.59904e+17
7.24507e+17
7.67171e+17
7.72747e+17
6.95599e+17
4.01182e+17
5.63784e+17
8.95212e+17
8.46227e+17
6.32496e+17
3.63797e+17
3.32211e+17
5.86755e+17
8.43481e+17
1.0632e+18
1.22325e+18
1.32685e+18
1.38042e+18
1.38185e+18
1.31708e+18
1.12946e+18
5.66632e+17
8.8477e+17
1.02177e+18
9.94936e+17
8.02457e+17
5.28785e+17
3.1597e+17
4.55531e+17
7.39952e+17
1.14894e+18
1.51118e+18
1.78595e+18
1.97246e+18
2.06784e+18
2.0558e+18
1.84824e+18
9.67243e+17
1.03518e+18
1.6809e+18
1.61157e+18
1.31671e+18
9.07678e+17
5.47344e+17
6.27044e+17
7.59708e+17
1.09584e+18
1.5643e+18
1.95277e+18
2.21586e+18
2.35343e+18
2.35369e+18
2.11317e+18
9.5966e+17
8.77665e+17
1.78944e+18
1.71584e+18
1.38418e+18
9.32245e+17
5.28225e+17
5.82791e+17
7.00149e+17
7.838e+17
1.17385e+18
1.53067e+18
1.72311e+18
1.7667e+18
1.6815e+18
1.41591e+18
6.73474e+17
6.04498e+17
9.71515e+17
8.84206e+17
6.45965e+17
4.39874e+17
5.21275e+17
7.34282e+17
7.48127e+17
4.08798e+17
5.58399e+17
8.50197e+17
9.06743e+17
8.16875e+17
6.81235e+17
5.52979e+17
6.95663e+17
7.67668e+17
9.52385e+17
1.12772e+18
1.28959e+18
1.45359e+18
1.58336e+18
1.58969e+18
1.36479e+18
8.64487e+17
4.72558e+17
6.4607e+17
5.98623e+17
6.85293e+17
1.00351e+18
1.24106e+18
8.96601e+17
1.05703e+18
2.1513e+18
2.50391e+18
2.66928e+18
2.73522e+18
2.69653e+18
2.50515e+18
2.09684e+18
1.47575e+18
9.11998e+17
9.0781e+17
8.41946e+17
9.36231e+17
1.40493e+18
1.68593e+18
8.92559e+17
1.19365e+18
2.64483e+18
3.07483e+18
3.21122e+18
3.19453e+18
3.04555e+18
2.74486e+18
2.26058e+18
1.60455e+18
9.73907e+17
8.96269e+17
9.55349e+17
8.1102e+17
1.16128e+18
1.36025e+18
6.36467e+17
1.18061e+18
1.95886e+18
2.2256e+18
2.23791e+18
2.12351e+18
1.91687e+18
1.61647e+18
1.2104e+18
7.19436e+17
3.90346e+17
6.70037e+17
8.52575e+17
4.79265e+17
6.35724e+17
7.94172e+17
3.96928e+17
1.2322e+18
8.98118e+17
7.49326e+17
5.22296e+17
2.77574e+17
1.88466e+17
4.04714e+17
6.93064e+17
9.99567e+17
1.27905e+18
1.44023e+18
1.35805e+18
9.17707e+17
5.23937e+17
6.38866e+17
2.53822e+17
1.2358e+18
8.29582e+17
1.02273e+18
1.42381e+18
1.82591e+18
2.16917e+18
2.43679e+18
2.62594e+18
2.73223e+18
2.73309e+18
2.57532e+18
2.19096e+18
1.57677e+18
1.00616e+18
9.56443e+17
3.78743e+17
1.05758e+18
1.13836e+18
1.65226e+18
2.21495e+18
2.68312e+18
3.03551e+18
3.26962e+18
3.3838e+18
3.37565e+18
3.23394e+18
2.93142e+18
2.43482e+18
1.75587e+18
1.08738e+18
9.29023e+17
6.7931e+17
7.40417e+17
1.02543e+18
1.46741e+18
1.94256e+18
2.27491e+18
2.47899e+18
2.57942e+18
2.58273e+18
2.49103e+18
2.30132e+18
2.00145e+18
1.57775e+18
1.04653e+18
5.68746e+17
6.42666e+17
9.48885e+17
3.63079e+17
6.62831e+17
8.5598e+17
1.11277e+18
1.17666e+18
1.12446e+18
1.00664e+18
8.45335e+17
6.54518e+17
4.43088e+17
2.26235e+17
1.77724e+17
4.22861e+17
6.89666e+17
8.65876e+17
9.98996e+17
1.40423e+17
3.97535e+17
2.80234e+17
4.37935e+17
3.79704e+17
4.52283e+17
6.28792e+17
8.39261e+17
1.04634e+18
1.22997e+18
1.38241e+18
1.49988e+18
1.57217e+18
1.5671e+18
1.40381e+18
8.81923e+17
1.36005e+17
2.09168e+17
2.32316e+17
3.87697e+17
6.11718e+17
8.26794e+17
1.02039e+18
1.18754e+18
1.31592e+18
1.40109e+18
1.44295e+18
1.44221e+18
1.39513e+18
1.28316e+18
1.05006e+18
4.96184e+17
4.80982e+17
8.71236e+17
8.93299e+17
7.54955e+17
6.34985e+17
7.36199e+17
9.25799e+17
1.09258e+18
1.2441e+18
1.37204e+18
1.46487e+18
1.51712e+18
1.52175e+18
1.45705e+18
1.24869e+18
6.62312e+17
9.3389e+17
1.17572e+18
1.00352e+18
8.9889e+17
8.3412e+17
7.96024e+17
1.08397e+18
1.31685e+18
1.44351e+18
1.49062e+18
1.47954e+18
1.42555e+18
1.33553e+18
1.20416e+18
1.01531e+18
1.1298e+18
1.22515e+18
6.56309e+17
4.95541e+17
5.78353e+17
7.17709e+17
4.24966e+17
6.89747e+17
9.38975e+17
8.89637e+17
7.28515e+17
5.96996e+17
5.80646e+17
6.65286e+17
7.71654e+17
8.4731e+17
1.41039e+18
1.36561e+18
9.23917e+17
1.09324e+18
1.1901e+18
1.10402e+18
6.86901e+17
3.94516e+17
7.54866e+17
6.13116e+17
6.88755e+17
1.1698e+18
1.67099e+18
2.06664e+18
2.30174e+18
2.24082e+18
1.50502e+18
1.38697e+18
2.2547e+18
2.37982e+18
2.2145e+18
1.82893e+18
1.23277e+18
7.21471e+17
9.62983e+17
9.24737e+17
1.01433e+18
1.65497e+18
2.30108e+18
2.76694e+18
2.99752e+18
2.8291e+18
1.3355e+18
1.2356e+18
2.65309e+18
2.74015e+18
2.45431e+18
1.95245e+18
1.2856e+18
6.94281e+17
8.63483e+17
1.01436e+18
8.59606e+17
1.36194e+18
1.947e+18
2.29802e+18
2.38762e+18
2.13531e+18
1.0134e+18
1.01399e+18
1.68144e+18
1.66864e+18
1.3814e+18
9.55119e+17
4.80893e+17
4.52251e+17
8.66305e+17
9.99538e+17
5.29705e+17
6.78174e+17
1.13399e+18
1.23692e+18
1.07719e+18
7.42941e+17
9.56183e+17
1.06336e+18
5.85594e+17
7.32748e+17
9.57052e+17
1.21197e+18
1.4742e+18
1.69923e+18
1.79105e+18
1.60944e+18
1.04167e+18
5.40132e+17
8.16525e+17
6.84043e+17
5.88827e+17
8.34346e+17
1.09508e+18
1.23906e+18
2.07444e+18
2.5356e+18
2.83088e+18
3.01884e+18
3.10319e+18
3.0643e+18
2.85307e+18
2.40294e+18
1.70006e+18
1.02927e+18
1.07188e+18
9.60185e+17
9.69568e+17
1.38532e+18
1.04089e+18
1.24509e+18
2.84346e+18
3.44737e+18
3.7334e+18
3.83804e+18
3.79096e+18
3.5899e+18
3.21375e+18
2.63814e+18
1.87687e+18
1.12687e+18
1.00829e+18
1.06969e+18
8.35366e+17
1.15483e+18
7.20847e+17
1.05684e+18
2.30303e+18
2.75506e+18
2.88926e+18
2.8569e+18
2.70453e+18
2.44263e+18
2.06741e+18
1.5768e+18
1.00132e+18
5.51626e+17
7.19918e+17
9.08187e+17
4.59405e+17
6.14714e+17
3.96153e+17
9.50823e+17
1.25076e+18
1.31183e+18
1.15878e+18
9.11065e+17
6.22755e+17
3.34714e+17
2.45277e+17
5.24035e+17
8.79325e+17
1.21063e+18
1.41706e+18
1.35839e+18
8.93703e+17
4.72139e+17
3.98179e+17
8.55657e+17
5.82179e+17
4.1538e+17
7.22177e+17
1.16338e+18
1.58694e+18
1.96343e+18
2.27643e+18
2.51563e+18
2.66965e+18
2.71142e+18
2.58965e+18
2.23577e+18
1.62102e+18
9.77743e+17
7.23901e+17
6.20851e+17
8.46462e+17
9.81372e+17
1.49763e+18
2.04182e+18
2.51338e+18
2.89578e+18
3.17314e+18
3.3351e+18
3.37441e+18
3.27777e+18
3.02298e+18
2.58347e+18
1.955e+18
1.25342e+18
9.59407e+17
3.60068e+17
8.42492e+17
9.47919e+17
1.24618e+18
1.6145e+18
1.94409e+18
2.20886e+18
2.39638e+18
2.5004e+18
2.5174e+18
2.44351e+18
2.27334e+18
2.0008e+18
1.62552e+18
1.16837e+18
9.65768e+17
9.89787e+16
2.74606e+17
4.38162e+17
4.77289e+17
5.76724e+17
7.73796e+17
9.74809e+17
1.15633e+18
1.30861e+18
1.42365e+18
1.49771e+18
1.52952e+18
1.51409e+18
1.43041e+18
1.20653e+18
6.71478e+17
2.99456e+17
4.6381e+17
4.17429e+17
4.14503e+17
6.50723e+17
1.02921e+18
1.3299e+18
1.51029e+18
1.60336e+18
1.63744e+18
1.62411e+18
1.56607e+18
1.46124e+18
1.29686e+18
1.01925e+18
4.45843e+17
5.24013e+17
1.01735e+18
9.57329e+17
8.506e+17
9.22402e+17
9.6394e+17
1.32187e+18
1.75376e+18
2.12391e+18
2.40366e+18
2.58788e+18
2.67518e+18
2.65847e+18
2.50963e+18
2.11474e+18
9.14747e+17
8.75858e+17
1.79711e+18
1.59308e+18
1.21951e+18
1.25688e+18
1.19017e+18
1.43175e+18
2.08691e+18
2.69019e+18
3.12224e+18
3.38502e+18
3.49777e+18
3.46875e+18
3.27742e+18
2.79304e+18
1.30998e+18
1.25233e+18
2.04187e+18
1.73123e+18
1.20432e+18
1.12589e+18
1.19944e+18
1.17405e+18
1.77029e+18
2.35866e+18
2.6968e+18
2.81938e+18
2.79233e+18
2.65803e+18
2.42702e+18
2.04867e+18
1.48341e+18
1.44338e+18
1.24271e+18
9.26701e+17
5.88655e+17
6.89013e+17
8.653e+17
5.75517e+17
1.02437e+18
1.50251e+18
1.55683e+18
1.34357e+18
1.01466e+18
6.67366e+17
3.82074e+17
4.52599e+17
1.50708e+18
1.44318e+18
6.78166e+17
8.97424e+17
1.14473e+18
1.27459e+18
1.16638e+18
6.80686e+17
5.08877e+17
9.92115e+17
7.78964e+17
4.17606e+17
8.0338e+17
1.37371e+18
1.79748e+18
1.91584e+18
1.48519e+18
1.40697e+18
2.33861e+18
2.60448e+18
2.5932e+18
2.38756e+18
1.96222e+18
1.31962e+18
8.31927e+17
1.13048e+18
1.01164e+18
9.32688e+17
1.61834e+18
2.34348e+18
2.81583e+18
2.8189e+18
1.36265e+18
1.36394e+18
3.01203e+18
3.25454e+18
3.09901e+18
2.72602e+18
2.16582e+18
1.45051e+18
8.4518e+17
1.02185e+18
1.15038e+18
9.0148e+17
1.44546e+18
2.09979e+18
2.45505e+18
2.34996e+18
1.15622e+18
1.29141e+18
2.16383e+18
2.25566e+18
2.03455e+18
1.65624e+18
1.16451e+18
6.14022e+17
4.24765e+17
8.59504e+17
1.04635e+18
5.69117e+17
7.53914e+17
1.23716e+18
1.3071e+18
1.03115e+18
1.09185e+18
1.29978e+18
4.84951e+17
3.01853e+17
3.97151e+17
6.6216e+17
9.72772e+17
1.28686e+18
1.55668e+18
1.70148e+18
1.58301e+18
1.05281e+18
5.59987e+17
8.32481e+17
5.74509e+17
2.70525e+17
1.14651e+18
1.33716e+18
1.60561e+18
2.07084e+18
2.44941e+18
2.73704e+18
2.93311e+18
3.02745e+18
2.99631e+18
2.80334e+18
2.39163e+18
1.73812e+18
1.10113e+18
1.1122e+18
9.34532e+17
8.24536e+17
1.04576e+18
1.19932e+18
2.44869e+18
3.14074e+18
3.56768e+18
3.82165e+18
3.9263e+18
3.88121e+18
3.67868e+18
3.3068e+18
2.74921e+18
2.02106e+18
1.28855e+18
1.07433e+18
1.06496e+18
7.93323e+17
7.66646e+17
8.39115e+17
2.09309e+18
2.7097e+18
3.01934e+18
3.15673e+18
3.16235e+18
3.04405e+18
2.80631e+18
2.44926e+18
1.97361e+18
1.40745e+18
8.65421e+17
6.96149e+17
8.05355e+17
4.70737e+17
4.52033e+17
5.08743e+17
1.26341e+18
1.60804e+18
1.68969e+18
1.64684e+18
1.53072e+18
1.35942e+18
1.15021e+18
9.17578e+17
6.89666e+17
5.48553e+17
5.99737e+17
7.62767e+17
8.18711e+17
5.48798e+17
3.45308e+17
2.58091e+17
6.0727e+17
7.24349e+17
7.17763e+17
6.96353e+17
7.15573e+17
7.89967e+17
9.01501e+17
1.02533e+18
1.14349e+18
1.239e+18
1.29406e+18
1.28464e+18
1.17387e+18
9.02927e+17
4.64768e+17
1.55122e+17
4.64401e+17
7.23906e+17
8.51974e+17
9.36065e+17
1.01269e+18
1.07919e+18
1.12784e+18
1.15563e+18
1.16066e+18
1.14052e+18
1.09192e+18
1.01032e+18
8.95625e+17
7.29503e+17
3.64026e+17
2.69487e+17
3.57378e+17
2.73408e+17
3.14271e+17
4.82549e+17
7.55284e+17
1.01505e+18
1.2006e+18
1.31005e+18
1.35889e+18
1.36016e+18
1.32033e+18
1.24191e+18
1.12067e+18
9.17355e+17
4.99953e+17
5.38853e+17
4.59036e+17
4.97037e+17
4.25569e+17
8.35898e+17
1.19548e+18
1.43893e+18
1.54772e+18
1.54789e+18
1.47633e+18
1.35631e+18
1.20025e+18
1.02087e+18
8.40823e+17
7.13659e+17
8.83371e+17
6.63998e+17
2.55723e+17
4.87334e+17
1.36137e+17
6.33943e+17
9.23252e+17
8.9035e+17
6.98168e+17
4.39211e+17
2.03621e+17
2.1383e+17
4.14466e+17
6.03358e+17
7.29052e+17
7.43585e+17
9.95928e+17
6.50254e+17
9.67601e+17
1.09534e+18
8.08166e+17
6.70934e+17
9.08635e+17
6.65027e+17
6.27384e+17
1.0986e+18
1.60495e+18
2.00651e+18
2.28741e+18
2.44517e+18
2.44748e+18
2.14904e+18
1.08316e+18
8.53169e+17
1.89428e+18
1.8731e+18
1.46747e+18
1.07732e+18
1.16796e+18
1.04339e+18
1.14285e+18
1.82691e+18
2.49652e+18
2.97403e+18
3.25554e+18
3.36658e+18
3.30036e+18
2.90105e+18
1.3203e+18
1.2274e+18
2.29336e+18
2.15714e+18
1.67271e+18
1.15947e+18
1.05993e+18
1.07945e+18
1.02252e+18
1.64698e+18
2.28042e+18
2.65401e+18
2.79158e+18
2.77126e+18
2.63483e+18
2.30749e+18
1.44682e+18
1.38043e+18
1.62655e+18
1.45318e+18
1.1036e+18
7.90534e+17
7.30522e+17
7.6153e+17
4.8756e+17
9.98553e+17
1.48964e+18
1.57639e+18
1.39769e+18
1.12387e+18
8.75738e+17
7.59091e+17
1.36783e+18
1.2564e+18
5.77006e+17
7.64628e+17
9.82365e+17
1.14382e+18
1.20337e+18
1.06184e+18
6.51429e+17
6.51597e+17
1.06313e+18
8.68862e+17
4.98642e+17
7.19071e+17
1.1757e+18
1.40506e+18
1.24486e+18
1.1566e+18
1.99911e+18
2.33523e+18
2.4252e+18
2.3682e+18
2.16746e+18
1.78698e+18
1.24935e+18
9.09415e+17
1.15712e+18
1.02618e+18
8.80348e+17
1.4398e+18
2.04761e+18
2.25006e+18
1.13535e+18
1.23159e+18
2.77046e+18