/*--------------------------------*- C++ -*----------------------------------*\
| =========                 |                                                 |
| \\      /  F ield         | OpenFOAM: The Open Source CFD Toolbox           |
|  \\    /   O peration     | Version:  v2012                                 |
|   \\  /    A nd           | Website:  www.openfoam.com                      |
|    \\/     M anipulation  |                                                 |
\*---------------------------------------------------------------------------*/
FoamFile
{
    version     2.0;
    format      ascii;
    class       volScalarField;
    location    "1";
    object      sigmaHyd;
}
// * * * * * * * * * * * * * * * * * * * * * * * * * * * * * * * * * * * * * //

dimensions      [1 -1 -2 0 0 0 0];


internalField   nonuniform List<scalar> 
4096
(
-2.332e+17
-4.76993e+17
-5.86472e+17
-6.47505e+17
-6.76287e+17
-6.76678e+17
-6.49909e+17
-5.92991e+17
-4.92138e+17
-3.32495e+17
-1.34075e+17
-1.3182e+17
-2.35248e+17
-3.66617e+17
-4.41041e+17
-2.42798e+17
-3.23693e+17
-5.39921e+17
-6.17275e+17
-6.45383e+17
-6.4196e+17
-6.11967e+17
-5.57601e+17
-4.76163e+17
-3.53642e+17
-1.83737e+17
-2.56511e+16
-2.48287e+16
-5.95516e+16
-7.53987e+16
-5.23759e+16
-2.1527e+16
-1.53035e+17
-1.13544e+17
-1.0808e+17
-8.53687e+16
-5.44214e+16
-2.01446e+16
1.56508e+16
5.45127e+16
1.02608e+17
1.63268e+17
2.04066e+17
1.95043e+17
1.10496e+17
1.25857e+17
2.09586e+17
1.79175e+17
5.14449e+16
3.24424e+17
4.41869e+17
5.35529e+17
6.09576e+17
6.60306e+17
6.85953e+17
6.87352e+17
6.67893e+17
6.30524e+17
5.66226e+17
4.49829e+17
3.15196e+17
2.29804e+17
2.86374e+17
2.58272e+17
1.46106e+17
4.94385e+17
6.80843e+17
8.22184e+17
9.2855e+17
9.97616e+17
1.02767e+18
1.0191e+18
9.74222e+17
8.96203e+17
7.8565e+17
6.35827e+17
4.45145e+17
2.77277e+17
2.31727e+17
2.10212e+17
1.32853e+17
3.98408e+17
5.61394e+17
6.80706e+17
7.66011e+17
8.17504e+17
8.35205e+17
8.20343e+17
7.75315e+17
7.03243e+17
6.07149e+17
4.88501e+17
3.46359e+17
1.96362e+17
8.17503e+16
6.72767e+16
9.53427e+16
2.16883e+17
2.84008e+17
3.14468e+17
3.1728e+17
2.98206e+17
2.6227e+17
2.14024e+17
1.57702e+17
9.7193e+16
3.59476e+16
-2.32677e+16
-7.91844e+16
-1.29499e+17
-1.52466e+17
-1.14355e+17
2.28291e+16
5.38314e+16
6.10761e+16
4.47658e+15
-8.76784e+16
-1.96906e+17
-3.09058e+17
-4.13816e+17
-5.03608e+17
-5.72741e+17
-6.17009e+17
-6.33443e+17
-6.20312e+17
-5.75734e+17
-4.83234e+17
-2.4174e+17
-1.12642e+17
-1.37599e+17
-6.36541e+16
-1.22211e+17
-2.49942e+17
-4.05053e+17
-5.61296e+17
-7.02119e+17
-8.17177e+17
-8.99526e+17
-9.44342e+17
-9.48276e+17
-9.08615e+17
-8.20387e+17
-6.59688e+17
-2.86728e+17
-2.72646e+17
-2.72918e+17
-1.38589e+17
-1.1451e+17
-2.0492e+17
-3.2709e+17
-4.53237e+17
-5.65347e+17
-6.54427e+17
-7.15617e+17
-7.45687e+17
-7.42077e+17
-7.01835e+17
-6.18291e+17
-4.68752e+17
-1.72156e+17
-2.73465e+17
-2.18625e+17
-9.83455e+16
-1.21656e+16
-7.06605e+16
-1.41598e+17
-1.84791e+17
-2.07005e+17
-2.10844e+17
-1.9961e+17
-1.75624e+17
-1.39729e+17
-9.11497e+16
-2.63512e+16
5.85053e+16
9.02482e+16
-6.15565e+16
1.20609e+17
1.73076e+17
1.81777e+17
1.40653e+17
3.16279e+16
2.80418e+16
9.38885e+16
1.87549e+17
2.88878e+17
3.86135e+17
4.73055e+17
5.46175e+17
6.01722e+17
6.15587e+17
3.59927e+17
2.39173e+17
5.4623e+17
5.49688e+17
4.79892e+17
3.512e+17
2.10757e+17
1.42533e+17
2.25266e+17
3.64576e+17
5.13102e+17
6.48654e+17
7.61144e+17
8.44065e+17
8.86963e+17
8.46859e+17
4.67351e+17
4.07349e+17
7.18183e+17
7.09671e+17
6.09526e+17
4.60122e+17
2.79537e+17
1.48747e+17
1.94459e+17
3.57786e+17
5.07814e+17
6.31899e+17
7.26048e+17
7.86193e+17
8.00691e+17
7.27573e+17
3.9573e+17
3.52992e+17
5.42916e+17
5.36085e+17
4.48605e+17
3.26293e+17
1.9268e+17
8.28227e+16
6.79128e+16
2.18457e+17
3.59532e+17
4.08002e+17
4.19336e+17
4.03209e+17
3.55409e+17
2.6034e+17
1.34574e+17
1.24821e+16
-6.05584e+16
-6.52527e+16
-9.74692e+16
-1.35683e+17
-1.56772e+17
-1.38369e+17
-5.84877e+16
4.84155e+16
1.15418e+17
5.39439e+16
-3.40367e+16
-1.30468e+17
-2.30959e+17
-3.17711e+17
-1.70129e+17
-7.84128e+16
-1.78629e+17
-3.26788e+17
-4.52735e+17
-5.53122e+17
-6.28575e+17
-6.78696e+17
-6.97027e+17
-6.52742e+17
-4.43407e+17
-9.05156e+16
8.02783e+15
-9.89546e+16
-2.80133e+17
-4.15269e+17
-2.67809e+17
-5.29423e+17
-9.438e+17
-1.08442e+18
-1.15158e+18
-1.16614e+18
-1.13297e+18
-1.0552e+18
-9.31626e+17
-7.47201e+17
-5.09456e+17
-2.23352e+17
-1.56119e+17
-2.44363e+17
-4.10453e+17
-5.27803e+17
-3.38936e+17
-5.82525e+17
-9.39099e+17
-1.04875e+18
-1.08792e+18
-1.07824e+18
-1.0251e+18
-9.31331e+17
-7.97498e+17
-6.21742e+17
-4.04518e+17
-1.9048e+17
-4.01611e+16
-7.97566e+16
-1.49224e+17
-2.01458e+17
-9.73203e+16
-3.22892e+17
-4.11108e+17
-4.14927e+17
-3.90347e+17
-3.4793e+17
-2.91687e+17
-2.23794e+17
-1.44859e+17
-5.53099e+16
4.26543e+16
1.39383e+17
2.06542e+17
1.83814e+17
1.11271e+17
1.24484e+17
1.60633e+17
-7.39502e+15
1.93064e+17
3.35818e+17
4.62046e+17
5.68741e+17
6.51773e+17
7.08687e+17
7.39068e+17
7.43607e+17
7.22252e+17
6.74559e+17
5.97801e+17
4.97774e+17
3.34322e+17
2.72057e+17
2.63974e+17
1.57338e+17
4.98885e+17
7.46978e+17
9.56552e+17
1.12325e+18
1.2417e+18
1.30904e+18
1.32491e+18
1.29092e+18
1.20956e+18
1.08382e+18
9.19527e+17
7.21996e+17
5.20315e+17
3.06523e+17
2.27064e+17
1.49356e+17
4.45591e+17
6.89767e+17
8.97665e+17
1.05885e+18
1.16851e+18
1.22608e+18
1.23303e+18
1.19222e+18
1.1075e+18
9.83334e+17
8.26016e+17
6.4413e+17
4.44451e+17
2.55471e+17
7.305e+16
7.60611e+16
2.54429e+17
3.74593e+17
4.86717e+17
5.5437e+17
5.78647e+17
5.67114e+17
5.27206e+17
4.65237e+17
3.86808e+17
2.97039e+17
2.01161e+17
1.05743e+17
1.6958e+16
-6.26429e+16
-1.60097e+17
-5.32332e+15
6.31801e+15
8.26391e+16
8.3803e+16
2.44243e+16
-7.99397e+16
-2.04962e+17
-3.32182e+17
-4.49336e+17
-5.47908e+17
-6.21617e+17
-6.65597e+17
-6.75139e+17
-6.4343e+17
-5.57483e+17
-3.5824e+17
-2.39928e+17
-3.00969e+17
-1.74852e+17
-1.31244e+17
-2.31565e+17
-4.22304e+17
-6.35502e+17
-8.36839e+17
-1.00762e+18
-1.13717e+18
-1.21853e+18
-1.24669e+18
-1.21723e+18
-1.12217e+18
-9.32649e+17
-4.70657e+17
-4.88331e+17
-5.56944e+17
-4.0976e+17
-2.26522e+17
-2.44111e+17
-3.86829e+17
-5.951e+17
-7.91513e+17
-9.53523e+17
-1.07263e+18
-1.14455e+18
-1.16597e+18
-1.1335e+18
-1.04005e+18
-8.55225e+17
-3.6087e+17
-5.23143e+17
-5.67585e+17
-4.04323e+17
-2.3748e+17
-1.29083e+17
-2.00174e+17
-2.9683e+17
-3.98453e+17
-4.6704e+17
-5.03729e+17
-5.12802e+17
-4.96349e+17
-4.54817e+17
-3.86571e+17
-2.79066e+17
-2.28827e+16
-2.49958e+17
-1.80012e+17
-7.94786e+16
6.74308e+15
6.15445e+16
3.39339e+16
-3.11174e+16
-2.82283e+16
1.90255e+16
9.26904e+16
1.73363e+17
2.51004e+17
3.19816e+17
3.73529e+17
3.98679e+17
3.40214e+17
1.46947e+17
3.46011e+17
3.85672e+17
3.64949e+17
3.11546e+17
2.47212e+17
1.35569e+17
1.36371e+17
2.61134e+17
4.34032e+17
6.00733e+17
7.43125e+17
8.51543e+17
9.13628e+17
8.94648e+17
5.81357e+17
4.54443e+17
7.58268e+17
7.65207e+17
6.78573e+17
5.49344e+17
4.07681e+17
2.99859e+17
2.27733e+17
3.14645e+17
4.78683e+17
6.44195e+17
7.74416e+17
8.63766e+17
9.01845e+17
8.57342e+17
5.14889e+17
2.83738e+17
4.65294e+17
4.49845e+17
3.48993e+17
2.18833e+17
1.04884e+17
5.31182e+16
1.18364e+17
2.49849e+17
3.48311e+17
3.87375e+17
3.91859e+17
3.6847e+17
3.13957e+17
2.2238e+17
1.21528e+17
2.07339e+17
3.93175e+17
3.36637e+17
2.51355e+17
1.60334e+17
6.42741e+16
-4.04457e+16
-1.56505e+17
-2.57202e+17
-1.64709e+17
5.04639e+16
2.49277e+17
3.4935e+17
3.7628e+17
3.63532e+17
1.58732e+17
3.99859e+16
9.8191e+16
2.56552e+16
-4.77987e+16
-1.14574e+17
-1.75968e+17
-2.35187e+17
-2.92864e+17
-3.16676e+17
-2.42201e+17
-4.7843e+16
5.95849e+16
8.27552e+16
4.83494e+16
4.82716e+15
-4.21663e+16
-1.98275e+17
-2.93277e+17
-3.67742e+17
-4.20961e+17
-4.53819e+17
-4.68208e+17
-4.65401e+17
-4.46168e+17
-4.03697e+17
-3.17325e+17
-1.32492e+17
1.40773e+16
5.22077e+15
-7.99469e+16
-1.69301e+17
-1.31911e+17
-2.97053e+17
-4.9091e+17
-5.53365e+17
-5.85418e+17
-5.92839e+17
-5.77229e+17
-5.39991e+17
-4.81663e+17
-4.0217e+17
-2.9506e+17
-1.62149e+17
2.67958e+16
7.13315e+16
-8.64738e+15
-1.23612e+17
-8.96617e+16
-2.12181e+17
-3.93691e+17
-4.17341e+17
-4.16769e+17
-4.00278e+17
-3.6963e+17
-3.2633e+17
-2.71015e+17
-2.03587e+17
-1.22892e+17
-2.21906e+16
8.44091e+16
1.83291e+17
1.1756e+17
2.38863e+16
1.55285e+16
-4.81982e+16
-1.25776e+17
-8.41886e+16
-3.102e+16
2.1757e+16
7.03786e+16
1.12919e+17
1.49036e+17
1.79788e+17
2.07241e+17
2.3575e+17
2.72492e+17
2.9862e+17
2.58034e+17
1.24794e+17
9.424e+16
5.7708e+16
1.03911e+17
2.15056e+17
3.2705e+17
4.23745e+17
4.97452e+17
5.45618e+17
5.68578e+17
5.68604e+17
5.49347e+17
5.15477e+17
4.73985e+17
4.28676e+17
3.63821e+17
2.10449e+17
8.90853e+16
5.61376e+16
1.70167e+17
3.16433e+17
4.64118e+17
5.87806e+17
6.76065e+17
7.2679e+17
7.42267e+17
7.26459e+17
6.84341e+17
6.21548e+17
5.43955e+17
4.57825e+17
3.60385e+17
2.42072e+17
-1.05426e+15
7.62163e+16
1.14553e+17
2.18273e+17
3.5957e+17
4.72778e+17
5.43643e+17
5.73448e+17
5.69557e+17
5.39272e+17
4.89084e+17
4.25085e+17
3.52861e+17
2.77286e+17
2.01284e+17
1.11373e+17
-1.01044e+17
7.50923e+16
9.7613e+15
5.87252e+16
1.45598e+17
2.17255e+17
2.37311e+17
2.16383e+17
1.69719e+17
1.10686e+17
4.81151e+16
-1.15724e+16
-6.32693e+16
-1.02817e+17
-1.2599e+17
-1.32879e+17
-2.18387e+17
-5.13437e+16
-1.24904e+17
-1.27611e+17
-1.81608e+16
9.76762e+15
-2.65941e+16
-1.09183e+17
-2.09276e+17
-3.0717e+17
-3.91235e+17
-4.55084e+17
-4.9442e+17
-5.05849e+17
-4.84725e+17
-4.19159e+17
-3.02039e+17
-2.27465e+17
-3.1796e+17
-2.97669e+17
-1.66088e+17
-6.74332e+16
-1.15858e+17
-2.36297e+17
-3.71495e+17
-4.93867e+17
-5.91499e+17
-6.5981e+17
-6.96496e+17
-6.99664e+17
-6.65707e+17
-5.75443e+17
-2.85971e+17
-3.57638e+17
-4.54978e+17
-3.79869e+17
-2.71072e+17
-1.05026e+17
-7.7326e+16
-1.67267e+17
-2.95281e+17
-4.0271e+17
-4.81744e+17
-5.33226e+17
-5.59204e+17
-5.60719e+17
-5.37224e+17
-4.71098e+17
-1.47309e+17
-3.26155e+17
-4.00136e+17
-3.10839e+17
-2.09182e+17
-1.05585e+17
-1.22233e+15
-4.56881e+16
-1.05207e+17
-1.53267e+17
-1.71744e+17
-1.73329e+17
-1.65325e+17
-1.52805e+17
-1.39253e+17
-1.17535e+17
7.28945e+16
-1.02939e+17
-8.51929e+16
-2.12392e+16
1.26516e+16
4.68098e+16
8.5896e+16
9.15293e+16
5.505e+16
8.84279e+16
1.36168e+17
1.85806e+17
2.25903e+17
2.50631e+17
2.53926e+17
2.33667e+17
2.39748e+17
2.07588e+17
4.43961e+17
4.49195e+17
3.71293e+17
2.7106e+17
1.88137e+17
1.50902e+17
1.54331e+17
3.13765e+17
4.44058e+17
5.5227e+17
6.32326e+17
6.78568e+17
6.80738e+17
6.14969e+17
3.40802e+17
-2.10228e+17
-3.73848e+17
-3.81133e+17
-3.53244e+17
-3.04988e+17
-2.46896e+17
-1.96757e+17
-2.02017e+17
-3.25167e+17
-3.28662e+17
-2.61123e+17
-1.79378e+17
-1.21393e+17
-8.72412e+16
-6.21806e+16
-2.3352e+16
-4.86271e+16
1.57006e+16
5.52071e+15
-6.27015e+15
-1.42372e+16
-2.22925e+16
-4.07898e+16
-7.43277e+16
-1.69138e+17
-1.86699e+17
-8.29068e+16
4.3304e+16
1.38956e+17
2.02114e+17
2.3793e+17
1.34829e+17
1.7247e+16
1.5359e+17
1.3895e+17
1.15154e+17
9.02491e+16
6.21909e+16
2.76513e+16
-2.22032e+16
-7.71239e+16
-1.25326e+17
-4.53408e+16
7.48754e+16
1.7872e+17
2.43569e+17
2.81757e+17
1.82702e+17
1.68804e+16
1.75852e+17
1.76168e+17
1.64761e+17
1.4968e+17
1.2968e+17
1.02705e+17
6.57699e+16
1.41204e+16
-2.38615e+16
-8.20326e+15
1.37153e+17
2.30685e+17
2.82784e+17
2.99818e+17
2.1292e+17
3.23738e+16
1.78462e+17
1.92845e+17
1.91768e+17
1.84137e+17
1.69563e+17
1.46651e+17
1.14637e+17
7.23527e+16
2.44409e+16
1.04322e+16
1.03327e+17
2.45737e+17
2.74965e+17
2.52651e+17
1.80857e+17
5.53947e+16
1.22091e+17
1.42523e+17
1.50936e+17
1.52978e+17
1.4804e+17
1.34816e+17
1.12873e+17
8.35119e+16
5.01882e+16
2.8424e+16
4.95913e+16
1.75494e+17
2.4185e+17
1.89337e+17
1.15078e+17
8.44395e+16
5.33636e+16
6.90203e+16
8.1376e+16
8.98639e+16
9.22329e+16
8.68475e+16
7.3585e+16
5.43659e+16
3.38596e+16
2.09992e+16
3.52881e+16
8.345e+16
1.72708e+17
1.18652e+17
5.12435e+16
9.40402e+16
-3.29775e+15
1.99101e+15
1.57296e+16
2.90395e+16
3.63835e+16
3.54472e+16
2.67941e+16
1.30815e+16
-8.43682e+14
-7.44225e+15
3.80832e+15
4.59052e+16
9.39704e+16
8.99867e+16
-5.35097e+15
7.73903e+16
-3.90688e+16
-4.43276e+16
-2.46394e+16
-3.05617e+15
1.0802e+16
1.34366e+16
6.54379e+15
-5.89824e+15
-1.86167e+16
-2.50495e+16
-1.8023e+16
9.10409e+15
5.44565e+16
7.1564e+16
-1.09517e+16
8.58402e+16
-6.64788e+16
-7.60778e+16
-4.18535e+16
-3.3554e+15
2.16318e+16
3.00634e+16
2.50277e+16
1.24124e+16
-1.76606e+15
-1.15068e+16
-1.11184e+16
3.07342e+15
3.05995e+16
5.26778e+16
-2.30005e+15
7.14975e+16
-2.43371e+16
-9.37496e+16
-5.28861e+16
1.01293e+16
5.11812e+16
6.74996e+16
6.55759e+16
5.3569e+16
3.8451e+16
2.5607e+16
1.94913e+16
2.30167e+16
3.59458e+16
4.83164e+16
-5.23638e+16
5.51165e+16
2.94166e+16
-8.1145e+16
-5.29394e+16
1.80013e+16
7.66419e+16
9.93783e+16
9.93067e+16
8.76772e+16
7.25477e+16
5.84035e+16
4.80798e+16
4.35179e+16
4.55568e+16
4.97033e+16
-5.87929e+16
3.91486e+16
1.35004e+16
-6.01155e+16
-8.21727e+16
2.65829e+16
8.81804e+16
1.13427e+17
1.10004e+17
9.65112e+16
8.07767e+16
6.61468e+16
5.34196e+16
4.30403e+16
3.60325e+16
3.51496e+16
-1.84333e+16
7.13146e+15
-7.06678e+15
-6.53961e+16
-1.01864e+17
-3.31667e+16
9.36415e+16
1.19494e+17
1.09195e+17
9.10072e+16
7.42422e+16
5.88122e+16
4.35502e+16
2.71014e+16
9.27035e+15
-2.17325e+15
3.10771e+16
-1.09029e+16
-2.1902e+16
-3.97159e+16
-7.8857e+16
-7.92874e+16
4.1689e+16
1.24566e+17
1.23042e+17
1.05919e+17
9.28173e+16
8.05881e+16
6.51152e+16
4.34919e+16
1.22513e+16
-2.50879e+16
6.00874e+16
3.84956e+16
8.44529e+16
8.03313e+16
2.99155e+16
4.59099e+15
3.42795e+16
1.28034e+17
1.43343e+17
1.68358e+17
1.94181e+17
2.14954e+17
2.2557e+17
2.21587e+17
1.9566e+17
1.38531e+17
9.85326e+16
-2.43344e+17
-4.13679e+17
-4.43717e+17
-4.23044e+17
-3.79244e+17
-3.31394e+17
-2.92097e+17
-2.72754e+17
-2.92926e+17
-3.21411e+17
-3.27595e+17
-3.24499e+17
-3.22341e+17
-3.18818e+17
-2.96557e+17
-1.59853e+17
-3.51385e+17
-5.24355e+17
-5.29118e+17
-4.91917e+17
-4.29798e+17
-3.49521e+17
-2.71158e+17
-2.2232e+17
-2.90508e+17
-3.51191e+17
-3.93511e+17
-4.14589e+17
-4.28586e+17
-4.35506e+17
-4.22685e+17
-2.51821e+17
-3.32778e+17
-5.07874e+17
-5.07799e+17
-4.74354e+17
-4.17452e+17
-3.39869e+17
-2.44136e+17
-1.65771e+17
-1.89186e+17
-2.75124e+17
-3.02551e+17
-3.12253e+17
-3.14013e+17
-3.13009e+17
-2.96044e+17
-1.72237e+17
-2.64164e+17
-3.65668e+17
-3.58381e+17
-3.25374e+17
-2.74961e+17
-2.09808e+17
-1.33267e+17
-5.85385e+16
-1.82613e+16
-7.00118e+16
-1.34804e+17
-1.12454e+17
-7.97516e+16
-5.32037e+16
-2.16169e+16
1.88077e+16
-1.4028e+17
-8.95545e+16
-7.2677e+16
-4.79905e+16
-1.76258e+16
1.68373e+16
5.1872e+16
8.1049e+16
8.74621e+16
6.26293e+16
-3.92404e+15
1.146e+16
8.39154e+16
1.58967e+17
2.24097e+17
2.12178e+17
-3.23735e+15
2.05295e+17
2.56713e+17
2.92487e+17
3.18782e+17
3.34776e+17
3.38126e+17
3.24632e+17
2.88168e+17
2.19406e+17
1.46664e+17
1.01705e+17
2.12695e+17
3.22469e+17
4.1731e+17
3.54522e+17
1.49263e+17
4.69757e+17
5.58678e+17
6.085e+17
6.34173e+17
6.35689e+17
6.1166e+17
5.60219e+17
4.80065e+17
3.71029e+17
2.40562e+17
1.46859e+17
1.67677e+17
3.20401e+17
3.9998e+17
3.30473e+17
2.23145e+17
4.91731e+17
5.88336e+17
6.43547e+17
6.72125e+17
6.73556e+17
6.46362e+17
5.89798e+17
5.04524e+17
3.94297e+17
2.67557e+17
1.47102e+17
8.8517e+16
1.66469e+17
2.60791e+17
1.98755e+17
2.19686e+17
3.17615e+17
3.71667e+17
4.03492e+17
4.18279e+17
4.14335e+17
3.89873e+17
3.44791e+17
2.80662e+17
2.01648e+17
1.16306e+17
3.87844e+16
-5.40582e+15
3.48868e+15
8.21414e+16
7.09131e+16
1.72347e+17
9.25636e+16
6.98836e+16
5.097e+16
3.0137e+16
3.91471e+15
-2.89383e+16
-6.76154e+16
-1.09612e+17
-1.50916e+17
-1.85007e+17
-2.01909e+17
-1.8949e+17
-1.35061e+17
-6.71535e+16
4.18892e+16
6.8669e+16
-6.41067e+16
-1.37987e+17
-2.08952e+17
-2.67197e+17
-3.20873e+17
-3.70252e+17
-4.13272e+17
-4.46367e+17
-4.65332e+17
-4.65265e+17
-4.39987e+17
-3.83188e+17
-2.91762e+17
-1.69895e+17
-7.47112e+15
-2.47987e+16
-6.11488e+16
-1.96347e+17
-2.77849e+17
-3.45363e+17
-4.02852e+17
-4.54554e+17
-4.96684e+17
-5.25198e+17
-5.35811e+17
-5.24767e+17
-4.88397e+17
-4.23601e+17
-3.30695e+17
-2.15318e+17
-7.47241e+16
-3.83413e+16
-1.05369e+16
-9.23697e+16
-2.11836e+17
-2.48177e+17
-2.67005e+17
-2.84401e+17
-2.99086e+17
-3.06442e+17
-3.03271e+17
-2.87267e+17
-2.5691e+17
-2.11059e+17
-1.50373e+17
-8.09053e+16
-3.85364e+16
2.44198e+16
7.38356e+16
4.60876e+16
-7.46446e+16
-1.07612e+17
-6.99214e+16
-1.82932e+16
2.50971e+16
6.40445e+16
1.00503e+17
1.34342e+17
1.64569e+17
1.90295e+17
2.10141e+17
2.17908e+17
1.16444e+17
1.70167e+17
2.72118e+17
1.97598e+17
7.07064e+16
-2.65177e+16
6.64925e+16
1.74455e+17
2.83354e+17
3.75521e+17
4.54257e+17
5.16776e+17
5.5922e+17
5.78295e+17
5.69126e+17
5.16178e+17
2.93466e+17
2.63529e+17
4.60543e+17
3.49064e+17
1.38831e+17
3.65889e+15
1.03362e+17
2.53899e+17
3.70487e+17
4.68052e+17
5.49153e+17
6.10093e+17
6.46574e+17
6.54606e+17
6.26187e+17
5.34583e+17
2.74309e+17
-1.11304e+17
-1.80746e+17
-2.05336e+17
-1.84516e+17
-1.59068e+17
-2.25008e+17
-2.28622e+17
-2.33436e+17
-2.02719e+17
-1.57607e+17
-1.03132e+17
-4.89142e+16
5.12407e+14
4.69751e+16
8.98359e+16
3.42984e+16
-3.00375e+16
2.1525e+15
-7.95961e+16
-1.42841e+17
-1.97655e+17
-2.37078e+17
-1.71599e+17
-7.18222e+16
-5.07466e+16
-4.67475e+16
-4.31489e+16
-4.0226e+16
-4.05577e+16
-4.06641e+16
-3.69609e+16
-6.50233e+16
-8.07227e+16
-1.3734e+17
-1.90118e+17
-2.33063e+17
-2.62757e+17
-2.69704e+17
-2.32683e+17
-1.14273e+17
-8.1505e+16
-1.13578e+17
-1.64914e+17
-2.12476e+17
-2.57302e+17
-2.9773e+17
-3.27789e+17
-2.4203e+17
-2.15909e+17
-4.28302e+17
-4.55658e+17
-4.56235e+17
-4.34459e+17
-3.8489e+17
-2.95257e+17
-1.86942e+17
-9.43426e+16
-1.42678e+17
-2.30848e+17
-3.33884e+17
-4.28209e+17
-5.13501e+17
-5.72851e+17
-3.95544e+17
-3.58144e+17
-6.92362e+17
-7.18461e+17
-6.95425e+17
-6.40776e+17
-5.52665e+17
-4.29098e+17
-2.73887e+17
-1.41233e+17
-1.13402e+17
-2.22266e+17
-3.25091e+17
-4.35347e+17
-5.31973e+17
-5.91441e+17
-3.83705e+17
-4.12402e+17
-7.20872e+17
-7.43866e+17
-7.12335e+17
-6.48808e+17
-5.542e+17
-4.30205e+17
-2.83235e+17
-1.32525e+17
-3.19345e+16
-5.00147e+16
-1.60898e+17
-2.14868e+17
-2.63535e+17
-2.80655e+17
-1.48294e+17
-2.88759e+17
-3.73815e+17
-3.72427e+17
-3.42139e+17
-2.95825e+17
-2.34594e+17
-1.59771e+17
-7.71576e+16
2.44223e+15
5.69776e+16
6.2743e+16
-6.9924e+15
-4.39297e+16
-8.8705e+15
5.65105e+16
1.23435e+17
-8.98314e+16
9.29444e+16
1.60682e+17
2.19668e+17
2.70554e+17
3.12245e+17
3.43742e+17
3.61817e+17
3.59924e+17
3.29764e+17
2.59986e+17
1.75432e+17
9.429e+16
1.75857e+17
3.05411e+17
3.21342e+17
1.254e+17
5.19025e+17
6.66077e+17
7.69609e+17
8.41158e+17
8.79534e+17
8.83628e+17
8.5211e+17
7.82685e+17
6.73412e+17
5.25037e+17
3.46234e+17
2.04068e+17
1.67912e+17
3.17576e+17
3.14222e+17
2.17854e+17
5.99384e+17
7.74209e+17
8.99128e+17
9.85189e+17
1.03074e+18
1.03444e+18
9.95622e+17
9.13969e+17
7.90327e+17
6.29379e+17
4.42205e+17
2.54388e+17
1.36179e+17
1.57249e+17
2.04389e+17
1.88117e+17
3.97988e+17
5.17499e+17
5.99074e+17
6.52901e+17
6.77183e+17
6.72021e+17
6.37708e+17
5.74861e+17
4.84975e+17
3.72221e+17
2.46341e+17
1.23466e+17
3.04141e+16
-2.66674e+15
8.23557e+16
4.5291e+16
1.5088e+17
1.5925e+17
1.33979e+17
9.87658e+16
5.56519e+16
6.76111e+15
-4.5274e+16
-9.8687e+16
-1.51733e+17
-2.0166e+17
-2.42781e+17
-2.65302e+17
-2.58227e+17
-2.08391e+17
-9.04082e+16
-4.98426e+16
3.79885e+15
-6.16712e+16
-1.8354e+17
-3.23936e+17
-4.50936e+17
-5.61111e+17
-6.50572e+17
-7.16458e+17
-7.56792e+17
-7.69686e+17
-7.52561e+17
-7.01276e+17
-6.11751e+17
-4.78977e+17
-2.14691e+17
-1.22059e+17
-8.90863e+16
-7.09922e+16
-2.56243e+17
-4.36493e+17
-6.05846e+17
-7.40222e+17
-8.42807e+17
-9.11997e+17
-9.46664e+17
-9.45803e+17
-9.08785e+17
-8.34565e+17
-7.22144e+17
-5.65748e+17
-2.39239e+17
-1.21607e+17
-5.97967e+16
1.13842e+15
-1.20989e+17
-3.49726e+17
-4.67263e+17
-5.37472e+17
-5.75505e+17
-5.89699e+17
-5.80574e+17
-5.49471e+17
-4.9814e+17
-4.27804e+17
-3.39932e+17
-2.34845e+17
-5.25304e+16
1.45679e+17
3.69678e+17
3.35112e+17
1.04258e+17
-2.17195e+17
-2.2831e+17
-1.25169e+17
2.00641e+15
1.32189e+17
2.58385e+17
3.74257e+17
4.74437e+17
5.55228e+17
6.1114e+17
6.12483e+17
3.2792e+17
-4.60154e+17
-7.68367e+17
-6.98921e+17
-5.02998e+17
-2.50704e+17
-2.62544e+17
-3.96504e+17
-5.49355e+17
-6.74737e+17
-7.61162e+17
-8.09596e+17
-8.24249e+17
-8.04934e+17
-7.42623e+17
-6.08022e+17
-2.60273e+17
-1.651e+17
-9.67278e+16
-1.08814e+17
-9.50147e+16
-6.91807e+16
-1.02613e+17
-3.94587e+16
4.03097e+16
1.28347e+17
2.0751e+17
2.79281e+17
3.40255e+17
3.89345e+17
4.31177e+17
4.6145e+17
2.63457e+17
1.68571e+17
4.0743e+17
3.38746e+17
2.37971e+17
1.1759e+17
1.65108e+16
-3.65916e+15
1.54277e+17
3.00036e+17
4.45873e+17
5.68098e+17
6.65327e+17
7.33857e+17
7.72915e+17
7.61517e+17
4.20506e+17
3.45829e+17
6.04444e+17
5.25775e+17
3.96789e+17
2.4731e+17
9.37233e+16
8.09859e+14
4.97417e+16
2.10318e+17
3.15889e+17
4.04391e+17
4.67736e+17
5.0551e+17
5.14572e+17
4.76754e+17
2.25145e+17
2.62421e+17
3.41657e+17
2.79548e+17
1.8844e+17
8.8433e+16
-7.12393e+15
-7.40417e+16
-7.81405e+16
2.59398e+16
1.01101e+17
1.03074e+17
7.31991e+16
2.62888e+16
-3.58762e+16
-1.15143e+17
-1.59012e+17
-2.23607e+16
-2.40182e+17
-2.96137e+17
-3.34214e+17
-3.58806e+17
-3.61878e+17
-3.32819e+17
-2.57941e+17
-1.56748e+17
-4.46425e+16
-7.2578e+16
-1.76292e+17
-3.18278e+17
-4.64103e+17
-5.93554e+17
-4.70858e+17
-3.18542e+17
-7.68427e+17
-8.44879e+17
-8.60379e+17
-8.39939e+17
-7.8179e+17
-6.81381e+17
-5.37361e+17
-3.55409e+17
-1.96378e+17
-1.26641e+17
-2.42797e+17
-4.01451e+17
-5.87714e+17
-7.33263e+17
-5.37491e+17
-4.7715e+17
-9.55186e+17
-1.04452e+18
-1.05719e+18
-1.02541e+18
-9.51004e+17
-8.32862e+17
-6.73352e+17
-4.81762e+17
-2.79674e+17
-1.33272e+17
-1.11255e+17
-2.44649e+17
-3.55603e+17
-4.43683e+17
-3.03583e+17
-3.8013e+17
-6.03465e+17
-6.51948e+17
-6.50427e+17
-6.21292e+17
-5.67209e+17
-4.87878e+17
-3.85017e+17
-2.66286e+17
-1.45233e+17
-4.57763e+16
-3.5081e+15
-5.71857e+16
-1.28071e+17
-1.0768e+17
-1.44444e+16
-1.81495e+17
-7.8017e+16
-2.29785e+16
4.02442e+16
1.02243e+17
1.59405e+17
2.11169e+17
2.56619e+17
2.91796e+17
3.08399e+17
2.96602e+17
2.4422e+17
1.69048e+17
7.50541e+16
1.2997e+17
1.82866e+17
1.16118e+16
3.79737e+17
5.6251e+17
7.13258e+17
8.3433e+17
9.20683e+17
9.70573e+17
9.83195e+17
9.56999e+17
8.88778e+17
7.75234e+17
6.17206e+17
4.2329e+17
2.60301e+17
1.74569e+17
1.99582e+17
6.74909e+16
4.75313e+17
7.15246e+17
9.06824e+17
1.05903e+18
1.16658e+18
1.22737e+18
1.2405e+18
1.205e+18
1.11965e+18
9.84044e+17
8.02246e+17
5.85937e+17
3.59188e+17
1.88499e+17
5.64125e+16
5.44971e+16
3.5046e+17
5.01759e+17
6.30939e+17
7.26247e+17
7.90058e+17
8.22354e+17
8.23571e+17
7.93092e+17
7.30025e+17
6.34249e+17
5.08542e+17
3.61845e+17
2.08535e+17
6.29324e+16
-1.18182e+17
8.16633e+16
1.6284e+17
2.29811e+17
2.05479e+17
1.49799e+17
8.68762e+16
2.63197e+16
-3.14655e+16
-8.63869e+16
-1.38762e+17
-1.88773e+17
-2.35565e+17
-2.74919e+17
-2.98259e+17
-2.97472e+17
-2.55641e+17
-3.56345e+14
1.06464e+15
6.3023e+16
-7.13388e+16
-3.01577e+17
-5.22627e+17
-6.97198e+17
-8.33376e+17
-9.33856e+17
-9.98025e+17
-1.02579e+18
-1.01734e+18
-9.7108e+17
-8.81619e+17
-7.34095e+17
-4.02415e+17
-1.03873e+17
-8.14837e+16
2.41915e+16
-2.00185e+17
-6.19839e+17
-8.85612e+17
-1.0675e+18
-1.19162e+18
-1.26511e+18
-1.28931e+18
-1.26606e+18
-1.19756e+18
-1.08381e+18
-9.19286e+17
-6.86537e+17
-3.05327e+17
-3.75001e+17
-6.19867e+17
-6.51713e+17
-4.10703e+17
-1.05946e+17
-1.17983e+16
-1.33296e+17
-3.41229e+17
-5.64347e+17
-7.66076e+17
-9.31782e+17
-1.05546e+18
-1.13028e+18
-1.13925e+18
-1.02317e+18
-4.66522e+17
-6.17835e+17
-7.73328e+17
-6.22429e+17
-4.08945e+17
-2.49461e+17
-2.88522e+17
-3.70998e+17
-5.01816e+17
-6.30623e+17
-7.38306e+17
-8.14268e+17
-8.55223e+17
-8.57562e+17
-8.11937e+17
-6.8773e+17
-2.73655e+17
-5.10393e+17
-5.5941e+17
-4.36533e+17
-2.8639e+17
-1.68927e+17
-1.66234e+17
-2.11079e+17
-2.0815e+17
-1.95682e+17
-1.7259e+17
-1.39051e+17
-9.67324e+16
-4.76302e+16
1.0878e+16
8.52549e+16
1.64288e+17
-1.2101e+17
5.0659e+16
9.00244e+16
1.03495e+17
8.85216e+16
5.05215e+16
-2.25395e+16
3.02793e+16
1.58164e+17
3.17056e+17
4.70747e+17
6.09246e+17
7.24763e+17
8.12386e+17
8.52107e+17
5.75321e+17
3.43757e+17
7.39779e+17
7.18659e+17
6.24742e+17
4.90447e+17
3.23054e+17
1.80454e+17
1.07055e+17
2.50454e+17
4.4128e+17
6.56859e+17
8.47144e+17
1.00096e+18
1.10771e+18
1.12998e+18
6.83081e+17
6.06688e+17
1.04687e+18
1.00987e+18
8.86492e+17
7.1771e+17
5.17649e+17
3.08106e+17
1.60411e+17
1.44463e+17
3.06333e+17
4.57021e+17
6.04671e+17
7.15443e+17
7.81629e+17
7.69123e+17
4.0322e+17
5.12919e+17
7.27147e+17
6.86557e+17
5.92255e+17
4.69094e+17
3.2825e+17
1.85429e+17
6.50147e+16
8.25536e+15
6.87367e+16
1.63786e+17
1.92135e+17
1.84205e+17
1.40728e+17
5.49041e+16
-8.50396e+16
1.44892e+17
-3.21639e+16
-1.02879e+17
-1.64707e+17
-2.21202e+17
-2.68147e+17
-2.95993e+17
-2.93654e+17
-2.48838e+17
-1.74372e+17
-6.29925e+16
-6.81135e+16
-1.72454e+17
-3.32974e+17
-5.02024e+17
-4.66101e+17
-2.27327e+17
-7.09779e+17
-8.34784e+17
-8.96726e+17
-9.21355e+17
-9.09659e+17
-8.57747e+17
-7.6072e+17
-6.18445e+17
-4.37072e+17
-2.74613e+17
-1.71848e+17
-2.75704e+17
-4.63336e+17
-6.74775e+17
-5.71112e+17
-4.31996e+17
-9.88196e+17
-1.14899e+18
-1.22445e+18
-1.24812e+18
-1.22343e+18
-1.14918e+18
-1.02412e+18
-8.51167e+17
-6.41005e+17
-4.14682e+17
-2.41196e+17
-1.79095e+17
-3.09975e+17
-4.37153e+17
-3.73132e+17
-3.73372e+17
-6.90222e+17
-7.99121e+17
-8.46292e+17
-8.56632e+17
-8.34316e+17
-7.79247e+17
-6.91072e+17
-5.71964e+17
-4.3057e+17
-2.81912e+17
-1.48676e+17
-7.30253e+16
-9.83387e+16
-1.76949e+17
-1.25522e+17
-2.24716e+17
-2.17514e+17
-1.96877e+17
-1.55496e+17
-1.04864e+17
-5.09296e+16
4.64924e+15
6.14667e+16
1.18155e+17
1.69838e+17
2.06735e+17
2.18426e+17
1.93412e+17
1.39909e+17
4.60482e+16
1.41213e+16
-8.49434e+16
1.70418e+17
3.39042e+17
4.96833e+17
6.36283e+17
7.50521e+17
8.35629e+17
8.89971e+17
9.11704e+17
8.97904e+17
8.4398e+17
7.45181e+17
6.01643e+17
4.19226e+17
2.41101e+17
-2.44075e+16
7.80775e+16
2.97339e+17
4.93479e+17
7.03319e+17
8.77678e+17
1.01617e+18
1.11705e+18
1.17795e+18
1.19561e+18
1.16708e+18
1.08977e+18
9.61845e+17
7.85806e+17
5.71287e+17
3.21193e+17
-5.86939e+16
1.96093e+17
2.35778e+17
3.96493e+17
5.04093e+17
5.79858e+17
6.2717e+17
6.57427e+17
6.68017e+17
6.55615e+17
6.18043e+17
5.53476e+17
4.60712e+17
3.42157e+17
2.08535e+17
6.96984e+16
-1.82086e+17
-1.27447e+16
-6.16636e+15
2.33508e+17
1.60789e+17
-5.30367e+16
-2.7202e+17
-4.69621e+17
-6.42092e+17
-7.86723e+17
-9.01091e+17
-9.84624e+17
-1.03798e+18
-1.05892e+18
-1.03316e+18
-9.13895e+17
-5.0857e+17
1.88271e+17
1.99969e+17
-9.83425e+16
2.28806e+15
3.23781e+17
6.48369e+17
8.59419e+17
9.61755e+17
9.8572e+17
9.57603e+17
8.91781e+17
7.95276e+17
6.73765e+17
5.35519e+17
3.87535e+17
1.20518e+17
-1.27148e+17
-2.63018e+17
-3.30234e+17
-2.40836e+17
-1.45927e+17
-1.31516e+17
-1.93559e+17
-3.00616e+17
-4.26757e+17
-5.4872e+17
-6.51054e+17
-7.26089e+17
-7.69196e+17
-7.74001e+17
-7.14395e+17
-4.06447e+17
-4.99339e+17
-7.11571e+17
-6.08336e+17
-4.54767e+17
-2.93917e+17
-3.31603e+17
-4.71679e+17
-6.73474e+17
-8.72037e+17
-1.04483e+18
-1.17623e+18
-1.25855e+18
-1.28811e+18
-1.25887e+18
-1.13439e+18
-5.6591e+17
-7.236e+17
-9.69832e+17
-8.05211e+17
-5.77173e+17
-3.79187e+17
-2.69716e+17
-3.73765e+17
-5.14486e+17
-6.76878e+17
-8.10458e+17
-9.06106e+17
-9.59249e+17
-9.69939e+17
-9.35477e+17
-8.25953e+17
-3.3329e+17
-6.02616e+17
-7.23475e+17
-5.86953e+17
-4.22375e+17
-2.61834e+17
-1.49303e+17
-1.41042e+17
-2.22539e+17
-2.54166e+17
-2.62116e+17
-2.40667e+17
-1.97585e+17
-1.39634e+17
-7.18561e+16
1.00337e+16
1.61418e+17
-1.4597e+17
2.12866e+16
9.58816e+16
1.4079e+17
1.62002e+17
1.53352e+17
1.19808e+17
3.43515e+16
3.69947e+16
1.44604e+17
3.04166e+17
4.72639e+17
6.30257e+17
7.62924e+17
8.41961e+17
6.13897e+17
3.96902e+17
8.54861e+17
8.89176e+17
8.40965e+17
7.4486e+17
6.07513e+17
4.36844e+17
2.82585e+17
1.60668e+17
2.53025e+17
4.43814e+17
6.82255e+17
9.00016e+17
1.07443e+18
1.15608e+18
7.35144e+17
7.05437e+17
1.24259e+18
1.26598e+18
1.19069e+18
1.05896e+18
8.79304e+17
6.64204e+17
4.33361e+17
2.51531e+17
1.68396e+17
3.01581e+17
4.69278e+17
6.48652e+17
7.81666e+17
8.24867e+17
4.59443e+17
6.21183e+17
9.33718e+17
9.35145e+17
8.7182e+17
7.69816e+17
6.34327e+17
4.75004e+17
3.07239e+17
1.51017e+17
4.92078e+16
5.61246e+16
1.55599e+17
2.04504e+17
2.14919e+17
1.60675e+17
-1.57108e+16
2.51524e+17
1.53251e+17
8.80242e+16
2.203e+16
-4.47232e+16
-1.11465e+17
-1.73486e+17
-2.21532e+17
-2.45791e+17
-2.3667e+17
-1.98746e+17
-1.03813e+17
-8.49681e+16
-1.76367e+17
-3.32021e+17
-3.74173e+17
-1.0753e+17
-5.26849e+17
-6.76545e+17
-7.74472e+17
-8.38919e+17
-8.71219e+17
-8.6973e+17
-8.31015e+17
-7.50494e+17
-6.28963e+17
-4.73059e+17
-3.29564e+17
-2.0827e+17
-2.85287e+17
-4.63682e+17
-4.75675e+17
-2.91712e+17
-8.10864e+17
-1.0179e+18
-1.15198e+18
-1.23605e+18
-1.27163e+18
-1.25801e+18
-1.1942e+18
-1.07906e+18
-9.15844e+17
-7.16034e+17
-4.97342e+17
-3.2228e+17
-2.31465e+17
-3.33303e+17
-3.34913e+17
-2.54181e+17
-5.95566e+17
-7.55627e+17
-8.58962e+17
-9.2303e+17
-9.5036e+17
-9.40773e+17
-8.93593e+17
-8.08891e+17
-6.89759e+17
-5.45172e+17
-3.8994e+17
-2.43788e+17
-1.49816e+17
-1.45313e+17
-1.82852e+17
-1.32354e+17
-2.32592e+17
-2.70446e+17
-2.73818e+17
-2.64117e+17
-2.43828e+17
-2.13513e+17
-1.72928e+17
-1.23221e+17
-6.71715e+16
-9.93852e+15
3.8194e+16
6.61386e+16
6.49153e+16
2.97741e+16
-9.63815e+16
4.86828e+16
3.54028e+16
1.56479e+17
2.91742e+17
4.00671e+17
4.88742e+17
5.59209e+17
6.1095e+17
6.4166e+17
6.48576e+17
6.28423e+17
5.75712e+17
4.84576e+17
3.58165e+17
2.06968e+17
-1.06812e+15
5.81494e+16
1.95378e+17
5.30043e+17
7.11366e+17
8.20591e+17
8.88275e+17
9.2329e+17
9.26041e+17
8.96067e+17
8.32609e+17
7.33885e+17
5.96207e+17
4.16602e+17
2.04272e+17
1.84795e+15
-8.9932e+16
2.42324e+17
2.06861e+17
-1.12863e+17
-1.5297e+17
7.13435e+16
3.85117e+17
6.81395e+17
9.17867e+17
1.08897e+18
1.20158e+18
1.26195e+18
1.27293e+18
1.23446e+18
1.13992e+18
9.46671e+17
3.85255e+17
3.02132e+17
2.59147e+17
4.25967e+16
7.25894e+16
2.44674e+17
4.84974e+17
6.96511e+17
8.53557e+17
9.52185e+17
9.9945e+17
1.00262e+18
9.66092e+17
8.92129e+17
7.79796e+17
6.09422e+17
1.64391e+17
2.43544e+17
1.76289e+17
1.01268e+16
-5.23948e+16
4.97156e+16
1.41958e+17
2.13373e+17
2.39902e+17
2.30224e+17
1.96035e+17
1.49415e+17
9.74536e+16
4.3276e+16
-1.1213e+16
-6.49951e+16
-1.9262e+17