/*--------------------------------*- C++ -*----------------------------------*\
| =========                 |                                                 |
| \\      /  F ield         | OpenFOAM: The Open Source CFD Toolbox           |
|  \\    /   O peration     | Version:  v2012                                 |
|   \\  /    A nd           | Website:  www.openfoam.com                      |
|    \\/     M anipulation  |                                                 |
\*---------------------------------------------------------------------------*/
FoamFile
{
    version     2.0;
    format      ascii;
    class       volScalarField;
    location    "1";
    object      epsilonEq;
}
// * * * * * * * * * * * * * * * * * * * * * * * * * * * * * * * * * * * * * //

dimensions      [0 0 0 0 0 0 0];


internalField   nonuniform List<scalar> 
512
(
118332
153783
55721.3
86506.8
99196.4
102105
103725
59225.5
168854
256343
191890
115833
185693
276388
334015
205881
177295
296700
222957
153866
126441
259984
335742
191260
157477
334236
370817
386935
369521
284821
307086
182293
465032
886076
1.06001e+06
1.05177e+06
899684
628734
425072
246539
635456
1.11479e+06
1.29432e+06
1.24937e+06
1.03901e+06
706107
406482
188512
419082
816618
989598
1.01144e+06
918957
742311
545755
301557
113421
213428
304620
423294
514511
549293
499271
266315
158229
253234
343873
396118
347236
236074
138184
82140.4
114846
187947
306767
459895
608686
728504
761875
380277
382184
643794
524209
456827
625130
895195
988859
577486
480994
567858
350218
189716
200417
435017
571605
351114
424368
719321
934159
1.06029e+06
917096
704843
704289
425612
688354
1.53159e+06
1.69278e+06
1.5527e+06
1.14173e+06
663635
496087
281279
346384
670295
569381
382049
322479
460644
415226
264102
147260
240359
179333
147428
207584
284185
313592
179940
78149.7
205842
325819
339527
299342
235013
168686
83525.7
83695.4
314702
286995
286923
279947
504823
666185
353576
448374
796098
744244
834109
1.26592e+06
1.55943e+06
1.52148e+06
703359
599390
1.04397e+06
790651
799721
942234
915335
557367
217383
162050
359614
585095
518444
394427
385947
742666
482130
649288
1.31635e+06
1.25163e+06
895417
464334
481340
588090
382569
416410
657065
398843
157286
431492
569521
528537
342090
237285
499015
688224
806442
832534
727905
530629
242311
299424
647594
838732
898983
837837
668065
416365
170073
418603
706985
804255
714155
685360
685457
667823
387588
300585
132161
159338
364608
591307
771714
840675
551252
377264
321140
197926
236479
352774
489030
579042
343385
332130
683492
671209
520521
457757
778728
961393
519953
573575
1.22222e+06
1.21485e+06
977989
806937
889896
937213
595862
519145
859456
757708
485410
332186
397228
358472
359549
338518
552873
618943
633751
641603
580428
346486
177853
234947
492457
592564
620735
604232
513724
368448
158731
334562
523833
539212
513373
375533
257268
257150
166794
294623
217554
342284
551396
741612
834028
770295
460293
465155
590223
764096
968819
1.12768e+06
1.16871e+06
1.01139e+06
702355
744369
818343
772104
765701
737075
645810
635147
940948
897675
466816
528386
654876
745221
829118
935020
925558
861459
1.00042e+06
1.18481e+06
1.08896e+06
1.15168e+06
1.14895e+06
972786
583174
542019
852672
864192
817084
749952
734106
600292
256031
210765
441552
460804
409877
499448
483392
287054
100824
378046
579835
507590
706702
682989
441993
461518
305876
380932
256170
780559
888189
883617
1.08463e+06
809870
505861
522489
871899
1.11992e+06
1.07377e+06
1.26913e+06
1.43243e+06
1.29492e+06
667163
714360
1.41483e+06
1.7117e+06
1.72187e+06
1.84193e+06
2.02678e+06
1.83739e+06
884896
872754
1.73209e+06
1.88069e+06
1.712e+06
1.7752e+06
1.8155e+06
1.46501e+06
705006
677485
1.1615e+06
1.16766e+06
1.07527e+06
1.09468e+06
1.09057e+06
850642
391550
360019
510067
521933
504230
449414
458087
373983
167905
159713
237177
302233
365669
357779
328557
292226
189582
289067
469007
475637
489098
565079
401217
373990
298499
312914
249397
402036
332862
359758
417413
496051
451551
425598
516856
748736
761995
748652
938368
1.08455e+06
674078
579836
1.06566e+06
1.29166e+06
1.28766e+06
1.21823e+06
1.35306e+06
1.41368e+06
731502
585319
1.26663e+06
1.45757e+06
1.31129e+06
1.17001e+06
1.25178e+06
1.14814e+06
527729
394848
903667
1.01078e+06
926161
824687
797755
870554
421509
158404
296566
390764
445549
292322
303390
392181
149053
76592.4
131334
99212.5
174984
142419
78891.7
204492
160104
103738
76695.9
403239
321035
204678
416327
349204
203014
173625
377538
640069
697469
625806
754984
758687
412714
439093
813658
1.02368e+06
1.10521e+06
1.07834e+06
1.08122e+06
1.07068e+06
694413
595461
991566
1.26999e+06
1.3316e+06
1.18557e+06
1.21371e+06
1.12508e+06
669247
525370
917649
1.09652e+06
1.07487e+06
950055
960181
850662
454925
368648
589712
695946
687831
521085
527804
541342
314876
144415
240366
343627
388234
258443
285414
347301
154782
)
;

boundaryField
{
    bottom
    {
        type            calculated;
        value           nonuniform List<scalar> 
64
(
118332
168854
177295
157477
465032
635456
419082
113421
158229
114846
382184
480994
424368
688354
346384
147260
78149.7
83695.4
448374
599390
162050
649288
416410
237285
299424
418603
300585
377264
332130
573575
519145
338518
234947
334562
294623
465155
744369
897675
861459
542019
210765
378046
380932
522489
714360
872754
677485
360019
159713
289067
312914
425598
579836
585319
394848
158404
76592.4
103738
173625
439093
595461
525370
368648
144415
)
;
    }
    left
    {
        type            calculated;
        value           nonuniform List<scalar> 
64
(
118332
153783
55721.3
86506.8
99196.4
102105
103725
59225.5
158229
253234
343873
396118
347236
236074
138184
82140.4
78149.7
205842
325819
339527
299342
235013
168686
83525.7
299424
647594
838732
898983
837837
668065
416365
170073
234947
492457
592564
620735
604232
513724
368448
158731
210765
441552
460804
409877
499448
483392
287054
100824
159713
237177
302233
365669
357779
328557
292226
189582
76592.4
131334
99212.5
174984
142419
78891.7
204492
160104
)
;
    }
    front
    {
        type            calculated;
        value           nonuniform List<scalar> 
64
(
76592.4
131334
99212.5
174984
142419
78891.7
204492
160104
103738
76695.9
403239
321035
204678
416327
349204
203014
173625
377538
640069
697469
625806
754984
758687
412714
439093
813658
1.02368e+06
1.10521e+06
1.07834e+06
1.08122e+06
1.07068e+06
694413
595461
991566
1.26999e+06
1.3316e+06
1.18557e+06
1.21371e+06
1.12508e+06
669247
525370
917649
1.09652e+06
1.07487e+06
950055
960181
850662
454925
368648
589712
695946
687831
521085
527804
541342
314876
144415
240366
343627
388234
258443
285414
347301
154782
)
;
    }
    right
    {
        type            calculated;
        value           nonuniform List<scalar> 
64
(
113421
213428
304620
423294
514511
549293
499271
266315
147260
240359
179333
147428
207584
284185
313592
179940
237285
499015
688224
806442
832534
727905
530629
242311
338518
552873
618943
633751
641603
580428
346486
177853
542019
852672
864192
817084
749952
734106
600292
256031
360019
510067
521933
504230
449414
458087
373983
167905
158404
296566
390764
445549
292322
303390
392181
149053
144415
240366
343627
388234
258443
285414
347301
154782
)
;
    }
    back
    {
        type            calculated;
        value           nonuniform List<scalar> 
64
(
118332
153783
55721.3
86506.8
99196.4
102105
103725
59225.5
168854
256343
191890
115833
185693
276388
334015
205881
177295
296700
222957
153866
126441
259984
335742
191260
157477
334236
370817
386935
369521
284821
307086
182293
465032
886076
1.06001e+06
1.05177e+06
899684
628734
425072
246539
635456
1.11479e+06
1.29432e+06
1.24937e+06
1.03901e+06
706107
406482
188512
419082
816618
989598
1.01144e+06
918957
742311
545755
301557
113421
213428
304620
423294
514511
549293
499271
266315
)
;
    }
    top
    {
        type            calculated;
        value           nonuniform List<scalar> 
64
(
59225.5
205881
191260
182293
246539
188512
301557
266315
82140.4
380277
577486
351114
425612
281279
264102
179940
83525.7
353576
703359
217383
482130
382569
342090
242311
170073
387588
551252
343385
519953
595862
359549
177853
158731
166794
460293
702355
940948
925558
583174
256031
100824
305876
505861
667163
884896
705006
391550
167905
189582
298499
451551
674078
731502
527729
421509
149053
160104
203014
412714
694413
669247
454925
314876
154782
)
;
    }
}


// ************************************************************************* //
