/*--------------------------------*- C++ -*----------------------------------*\
| =========                 |                                                 |
| \\      /  F ield         | OpenFOAM: The Open Source CFD Toolbox           |
|  \\    /   O peration     | Version:  v2012                                 |
|   \\  /    A nd           | Website:  www.openfoam.com                      |
|    \\/     M anipulation  |                                                 |
\*---------------------------------------------------------------------------*/
FoamFile
{
    version     2.0;
    format      ascii;
    class       volSymmTensorField;
    location    "1";
    object      epsilon;
}
// * * * * * * * * * * * * * * * * * * * * * * * * * * * * * * * * * * * * * //

dimensions      [0 0 0 0 0 0 0];


internalField   nonuniform List<symmTensor> 
512
(
(112207 -43504.1 49630.9 -25198.9 19072.1 -12945.3)
(165202 -73330.1 -44235.1 -18541.7 -1299.11 -3367.41)
(58722.8 -22371.8 -15724.8 -13979.2 5738.16 48442.7)
(23592 372.835 48271.8 -24337.7 -50671.3 20147.5)
(28652.5 -25662.5 46568.4 22672.6 -65143.9 -4342.45)
(3942.34 -41009 30503.8 78075.7 -51985 -17228)
(-21825.6 -42645 16631.6 107116 -22554.4 -20017.2)
(-14979.6 -20217.1 12834.7 55413.8 22362 -10689.8)
(-81415 -115766 65776.9 38135.6 -399.83 -37336)
(-127863 -173625 -63010.1 107626 34862 -26407)
(-75230.1 -76728.6 -98971.6 83283.4 72568.8 38046.1)
(-48668.7 -45781.5 -70890 44372.2 -5326.46 45260.1)
(-80014.4 -28175.8 -109239 124406 -49793.9 -2786.12)
(-169855 42098.9 -113875 233924 -30336 -19152.3)
(-238095 108448 -67704.3 279082 9408.44 -12955.1)
(-128369 65085.1 60809 138985 77157.9 15330.3)
(-137351 33730 -25681.9 134976 -55299.1 -24378)
(-225829 77421.1 38089 248644 44578.4 -19092)
(-112395 89402.6 59445.9 161129 81592.6 -10039.4)
(6150.64 63657.8 94487.1 54107 64487 18861.2)
(131109 51376.6 -7058.88 72329.1 29580.8 -48903.6)
(220573 143123 -86356.7 136702 89942.1 -18115)
(258336 242155 -47201.3 121129 99617.6 25005.3)
(138804 132462 61635.6 50110.9 63386.2 76661.4)
(188862 83278.3 -9955.02 983.587 -2677.81 4372.02)
(422128 125308 60605.8 -50812.7 8642.16 26751.5)
(459442 34987.9 63739 -143880 -20459.1 18959)
(395241 -89614.8 95449.5 -207365 -39772.9 2577.66)
(304055 -177175 83068.4 -168008 -53398.7 -61076.2)
(244441 -144807 11533.3 -102439 46425.1 -79033.5)
(274363 -116391 61340 -140087 98445.7 18670.9)
(164913 -66185.4 -61660.4 -90375.2 -10798.3 68778.7)
(288654 -208222 244724 -178131 66611.3 44908.3)
(654358 -527211 149444 -413788 -44646 57001.5)
(738583 -674832 79370.1 -465493 -123752 37863.8)
(682104 -704088 30763.1 -412083 -168838 10539.3)
(514210 -640107 -22123.2 -278808 -181830 -22650.9)
(295179 -472502 -74393 -114963 -121477 -90528.8)
(58569.6 -357811 56797.4 -67003 -17645.7 -8775.83)
(-31625 -177170 -112240 -48601 -38479.2 -28357.3)
(-51014.9 -393156 364810 -119532 -144.321 119821)
(-145110 -929742 155506 -252397 -139593 52876.8)
(-215923 -1.09607e+06 29309.4 -245679 -186912 8378.21)
(-258157 -1.05639e+06 -75682 -184539 -187589 -28062.8)
(-270551 -861953 -164626 -81976.5 -159119 -49260.4)
(-237663 -531850 -243296 49460.1 -105051 -67367.6)
(-253017 -239495 -179363 113804 -17247.4 -32654.5)
(-149576 -72688 -98585.2 54092 25180.9 -3730.22)
(-235632 -243229 176744 58088.3 -82934.3 107780)
(-645648 -528293 -45713.2 192668 -153944 15835.4)
(-923883 -538980 -120540 319578 -134302 -29046.4)
(-1.05444e+06 -434794 -150350 393064 -79143.6 -53917.1)
(-1.02844e+06 -262387 -152298 414745 -10573.6 -58772.2)
(-843071 -47835.9 -137015 387768 57398.7 -52965)
(-554136 136752 -61635.2 307086 109696 -22132.3)
(-198934 103079 116455 125998 109608 93217.3)
(-84309.1 -7080.92 27900.2 70147.3 -49328 28508.7)
(-97238 53663.4 -62777 204565 -59221.9 -2843.76)
(70683.2 189097 -64854.1 307511 -35921.7 -18162.7)
(254175 306228 -38905.8 358282 -1477.53 -24144.1)
(400977 378747 -2510.53 356517 34344.7 -21546.4)
(486453 396545 32017.7 306637 62840.1 -13283.5)
(475806 345667 69098.4 215528 78506.6 1018.84)
(219767 149993 135110 80219.9 65336.4 50452.9)
(21584 117719 -24925.1 17789.9 39075.8 -71434.2)
(3915.67 179373 -113275 4825.54 47911.7 -44428.9)
(-181323 169141 -170706 -11555.4 133637 36300.8)
(-344297 226679 -68685.7 -13202.6 135674 38741.6)
(-342780 201152 -17461.8 -47565.3 106023 28212.4)
(-292278 111167 12856.1 -78324.1 62664.5 18932.4)
(-211839 19841.2 34310.5 -85725.9 25087.8 7530.7)
(-81698.6 -9366.48 47776.7 -40355.4 38998.5 -13854.8)
(6309.39 61371.6 63238.6 -27709.5 -28682.6 -65868.5)
(108834 58895.4 98813.2 -109142 -8233.11 -62941.6)
(257195 59790.4 -69110.3 -175294 117095 -31624.6)
(433977 145645 41186.6 -252143 133817 71816.4)
(644112 63625.9 53992.7 -384476 67740.2 55854.8)
(735253 -151243 27183.6 -484344 -1971.97 37690.3)
(670485 -314789 6438.44 -481874 -47187.5 16907.9)
(300037 -183299 -71257.4 -223724 875.642 -21834.7)
(219099 -168344 166353 -197345 -95157.4 68950.8)
(380920 -375256 103689 -378760 -122488 -1933.9)
(278846 -327911 6384.64 -326271 -77856.7 -76426.4)
(168345 -223110 213165 -300746 -51523.7 38217)
(164719 -376210 222666 -369739 -167929 -18274.4)
(208407 -674132 55707.6 -430649 -194790 -9643.08)
(178062 -783337 -32331.8 -398378 -177227 2611.78)
(83054.7 -383305 -266095 -181579 -119091 -3501.82)
(110330 -263359 287551 -145203 27210.9 97557.8)
(245853 -427553 -21224.6 -225847 -53847.1 24570.7)
(292511 -146560 -168774 -87391.5 -26012.2 -23141.8)
(186147 103907 -75745.7 37473.9 6161.41 -9386.12)
(-57484.1 44601.7 83074.4 116019 -114283 -14829.4)
(-349122 -186638 -78549.5 206193 -153277 -103349)
(-555966 -202112 -83020.2 301524 -96145.8 -14416.4)
(-293487 -57145.7 -171669 167128 -54092.9 42993.8)
(-222991 149170 239044 203439 93930.1 54779.6)
(-376108 444507 53129.9 463629 106317 29744.2)
(-170743 708360 -37458.8 509171 159811 -5735.26)
(53099.1 858761 -15051.1 462180 193210 -23221)
(130630 753634 50533.8 409491 138002 14347.2)
(102299 515363 -172295 407616 72853 -127295)
(-37608.2 511688 -120211 445516 147718 -12166)
(-80002.9 304222 35837.5 234193 131626 69546.5)
(-73597.2 554183 101946 281128 73768.5 50039.8)
(-175174 1.24168e+06 91803.7 618917 203513 47935.5)
(-197395 1.3769e+06 38843.8 663700 228391 26589.7)
(-187354 1.26381e+06 30882.1 600148 198724 -8907.23)
(-208655 910153 58844.3 485326 126287 -30156.1)
(-130567 495297 -81843.2 360640 61205.3 -91531)
(-18750.1 320434 -180478 255875 122120 -97483.2)
(-5302.09 160886 54022 106324 162740 103512)
(37611.5 291618 67395.5 70436.2 -2814.27 34576.5)
(-7969.43 566923 -3422.62 133431 102175 43746.6)
(-163811 463148 -45736.8 112820 78924 34207.6)
(-298459 254412 -54705.9 89470.6 1314.38 6799.59)
(-417669 -7239.93 -35727.8 76815.5 -86601.7 -15146.9)
(-452834 -250535 -59147.9 62927.8 -138320 -47540.7)
(-312950 -291429 -71253.4 32374.8 -96655.3 -119259)
(-97556.2 -114703 167350 6616.58 67397.5 62616.4)
(-98345.8 98335.7 46601.1 -13895.7 -37262.5 5143.69)
(-180272 181266 -22135.3 -60802 -7516.61 17563.4)
(-115280 120763 -55254.7 -116850 -24958.7 16523.4)
(-11458.3 24489 -70362.5 -147777 -60027.2 7014.1)
(87126.3 -74830.2 -67046.3 -147866 -90249.6 -1731.07)
(178842 -150854 -64525.4 -120918 -103548 -8357.39)
(288566 -156863 -53682.3 -81738 -79862.6 -26290.7)
(174955 -67496 82544.7 -30853 9407.84 -9865.37)
(-30862.1 -55064.9 -33100 -25436.2 -20692.8 -35337.8)
(62719.3 -133174 12128.6 -91511.1 -88728.6 -29510.8)
(111629 -191043 -109856 -158564 -113026 -14480.5)
(-15526.7 -216858 -96535.5 -211454 -121742 17208.6)
(-80565.5 -178730 -54700.3 -255053 -108821 28258.1)
(-95237.5 -111170 -21462 -274366 -75907.8 26055.5)
(-93212.6 -39689 1770.71 -250216 -43245.7 15876.2)
(-44966.7 -3324.89 26517.9 -111938 -41780.3 -8069.18)
(-26079.4 -52981.2 -20365.5 -94638.6 20162.1 -23603)
(-69719.5 -141935 201383 -178457 -62175 18272.7)
(-199690 -215612 -38215.9 -122921 -103382 -90649.2)
(-333691 -127090 -19074.8 -44866.2 -113848 -4255.13)
(-274368 156981 37759.4 -5475.33 -70819.4 29941.1)
(-91114 431146 36475.3 -4251.98 970.205 30368.6)
(93195.9 573270 16100 -5493.92 37262.1 24044.4)
(87583.6 299537 -14834.5 -953.43 -40110.3 15880.5)
(183104 342662 27260 4433.97 149096 8768.42)
(312868 652216 41821.9 46982.7 157275 48187.8)
(209383 561202 -239163 132002 144060 -80469.8)
(-651.739 674010 -134058 280014 144516 -24300.9)
(-157463 1.03382e+06 98721.8 430948 176409 5908.84)
(-152301 1.28064e+06 130934 502384 223194 4330.62)
(-145880 1.25061e+06 111045 505634 210028 10267)
(-70771.3 581432 3064.33 243638 84168.2 27308.1)
(-42635.8 472803 124345 216745 112499 33067.6)
(-98195.4 843460 84922.6 427541 143073 -1508.49)
(22659.3 619698 -150935 356518 127998 -41438.6)
(182873 601190 -259131 265105 127052 -91860.9)
(277898 795956 41952.3 194914 130018 47292.6)
(320429 761657 51641.6 115256 143778 10038.2)
(197983 453501 14100.7 66002.5 135421 16600.1)
(50797.8 135650 -7790.75 26277.6 129581 27809.5)
(-60858.4 -53245.6 59300.6 56625.7 -85986.4 84473.6)
(-212658 -220819 17406.5 151732 -118393 15879.3)
(-313188 -407489 -60569 190851 -152944 -41422.8)
(-241229 -366782 -71579.4 151437 -146769 -119344)
(-132430 -166879 237451 73778.5 -146116 8121.42)
(15715.8 -257756 162408 -66102.1 -131240 -21564.5)
(106423 -612608 -28296.4 -234708 -82115.7 8100.76)
(38117.3 -394864 -50129 -150520 45306 65756)
(27893.5 -521734 12024.3 -160292 -175080 47697.4)
(38403 -1.08742e+06 -112584 -292116 -263166 26808.5)
(27925.1 -1.03617e+06 -162856 -220178 -236909 2525.09)
(59021.1 -736914 -145879 -129110 -167798 -32626.2)
(-54112.5 -367457 98148.4 6951.11 -126862 -31409.1)
(-225856 -280734 237267 109763 -94514.1 10505.7)
(-323721 -462127 -11583.9 83714.5 -61527.8 -85168.2)
(-193584 -282429 46502.7 21658.9 94835.9 61666.8)
(-139279 -288476 -25146.4 9189.65 -199512 -13622.2)
(-229089 -516803 -63031.3 29315 -180487 2188.21)
(-83402.2 -322974 -90421.1 36036.8 -54296.5 6514.69)
(114117 -19175.6 -84500.7 38532.3 86756.7 -2879.51)
(229283 299897 -716.364 88818.3 190702 301.6)
(164227 417142 66479.4 184402 243956 49144.6)
(90211.8 340744 -129746 216095 236437 -70736)
(47558.1 148029 114862 97890.3 226705 29088.6)
(88717.2 156146 -37918.6 82998.8 -114676 -12879.9)
(195671 414407 7175.83 179550 -48065 -6828.27)
(224684 582420 14467.6 186907 36086.2 -295.83)
(235088 677383 20477.1 167401 117354 -573.362)
(191759 689433 43673.2 142103 179837 -3234.72)
(64136.4 588174 62617.9 125551 209769 7053.69)
(75000.5 404821 -35022.1 92581.2 209948 8031.71)
(85264.9 152855 46995.8 32087.5 130092 8726.7)
(-201417 175096 -132297 36436.7 69366.2 -63176.3)
(-398908 465970 -64225.9 125433 137299 -6025.07)
(-411379 629553 -71577 223818 146866 11645.4)
(-439616 671536 -45142 299256 113317 36668.2)
(-422878 612667 15991.5 339168 56197 45180.3)
(-320017 474714 77691.4 321783 5826.87 32515.3)
(-147341 284028 107449 230538 -40058.3 2889.12)
(-24473.8 89124.6 42085.3 83488.7 -80079.7 -59696.8)
(-4060.56 229515 -218628 69218.9 132889 -156714)
(-35038.9 568277 -18217 169395 201798 31303.5)
(-179114 622432 -67696.6 240580 221270 11863.2)
(-452074 447547 -105040 320793 134751 39608.9)
(-697637 215261 -63270.8 368992 25263.6 60749.3)
(-795583 -18072.8 1305.1 337703 -69928.2 50806.8)
(-730077 -238981 66450.9 221500 -146541 20198.9)
(-328194 -169526 157782 72400.2 -131446 -57816.8)
(-118596 -27061.4 -243281 -3225.37 47029.9 -144086)
(-179735 39399 6801.36 6634.19 -28688.6 -9188.88)
(-28617.1 49533.5 -125615 1531.79 21783.4 4367.28)
(27182.4 -203535 -231459 -56571.6 -54256.2 -10037.8)
(-17562.4 -473342 -121640 -157211 -120258 22796.7)
(-7708.06 -626470 16685.6 -274648 -157305 43393.5)
(15731.3 -661057 129493 -337011 -173722 51487.9)
(11217.3 -321321 328305 -171331 -60332.8 41267.6)
(58458.8 -159419 -258156 -172575 -32495.4 -27722.2)
(48076.1 -156701 105080 -266284 -122248 -29713.2)
(30347.1 -5613.67 127721 -141094 -61999.9 19017.4)
(117713 -96012.6 -74757.2 -118599 -100791 -95548.1)
(246752 -139778 38376.9 -190339 -154125 -21094.9)
(452367 -48628 168647 -287183 -103421 24449)
(592280 42329 200957 -313148 -42658.7 52576.5)
(309681 38860.7 186979 -145090 15909 78035.5)
(313242 166010 -106456 -99061.6 16835.2 50728.6)
(578518 452200 -56644.3 -132923 57862 26891.3)
(402226 524391 -55582.9 17387 108359 27739.5)
(201420 383611 -160504 109815 107417 -67887.6)
(19967.8 374945 57778.6 157648 -14724.2 -68781.8)
(-87557.4 588746 269039 259335 45397.7 -18956)
(-98218.1 742105 249752 354932 155012 9015.79)
(-55162.6 382894 77372.9 194678 185184 41250.2)
(-60189.6 469444 24635.4 247937 -42799 70008.4)
(-128563 985036 -83069 560457 93362.3 -1502.85)
(-111304 949410 -133511 616789 175530 -17568.2)
(18739.3 717449 -270822 526200 184445 -31849.9)
(77055 596863 -231243 431463 65641.2 -104623)
(-12182 710404 67442.4 447641 136427 18414.7)
(-160069 690722 74326.9 455057 274106 8661.75)
(-132502 293551 126555 216948 365354 58459.2)
(-212752 273440 -116987 244316 -244348 88115.7)
(-435950 560178 -93929.5 512033 -72690.8 -27341.6)
(-410587 472719 -75225.6 478864 -22897 -63298.4)
(-262000 268903 -80700.2 340599 -41771.7 -87620.5)
(-6321.15 214662 -54430.6 204900 -76571.4 -124550)
(158858 304501 121858 147027 -990.774 -26526.9)
(205106 230407 20302.5 77982.3 191632 61904.7)
(114539 57646.3 128362 6403.98 263676 179317)
(225314 166096 -135661 33884.6 -168712 46008.9)
(551602 344215 -88620 47610.4 -79131.3 -15751.7)
(708427 323797 -41753.7 5326.17 -80689.6 -32858.6)
(788634 253853 10968.1 -35296.1 -93698.1 -41088.6)
(800623 212650 80066.1 -65611.7 -92136.7 -60386)
(611822 223101 223916 -44664.3 -70149.5 -63244.6)
(322588 106942 201790 -36967.4 47956.8 43860.4)
(104894 -11684.6 114177 -31018.3 58630.4 123460)
(-174328 -131362 -148710 -92487 17871.1 -123093)
(-475210 -297384 -197860 -216262 -53026.7 -22979.9)
(-677611 -327669 -173243 -272596 -52469.2 21504.9)
(-802353 -290803 -118732 -300520 -50113.6 60568.3)
(-857084 -213956 -27819.1 -260936 -55490.9 78196.1)
(-756226 -97984.7 101057 -184140 -10072.4 67028.5)
(-439254 33295.3 204516 -119045 8762.91 36301.8)
(-114487 46479.5 116007 -44141.9 -39432.6 -117527)
(-83446.6 -198405 -199052 -136934 27911.8 -212189)
(-187558 -406319 -105080 -328828 -101360 -50340.5)
(-216520 -398441 -60670.2 -415199 -87247.7 22424)
(-258857 -347169 -75678.8 -417789 -75960.5 83549.8)
(-290619 -205420 -54269.5 -329513 -14271.5 114355)
(-256071 -20075.3 39709.4 -219713 84950.4 109008)
(-222754 69544.2 114480 -101449 99119 71239.4)
(-110853 40840.3 121410 -16765 20164.4 -138047)
(-68771.5 38302 -244112 -29436.4 57399.3 -82094.4)
(-208918 111489 -97702 -61648.9 -83356.2 -76504.9)
(-298085 232622 -21839.2 9099.8 -56078.1 -4388.49)
(-311425 407331 -30098.1 171816 -25426.6 11015.1)
(-333247 550326 -3864.46 310566 73326.9 31699)
(-339369 593190 132597 365718 164398 66036.5)
(-273246 526929 207257 369194 145286 66569.2)
(-113638 236169 267805 183538 92646.2 -12332.1)
(-39678 137960 -359636 135059 71165.5 -12500.2)
(-153067 370837 -260310 294978 -22716.4 -55003.7)
(-237709 571055 -84294 399252 34297.9 2032.67)
(-279984 715139 -59385.8 556304 80754.1 -13252)
(-450002 772816 -85169.9 704923 62728.7 -61146.9)
(-631106 722826 97692.1 744443 134004 -8066.79)
(-648245 546484 210082 637834 92082.9 80133.7)
(-311476 219513 469003 281342 108072 67803.3)
(-310646 134796 -558803 246383 -73180.1 -113515)
(-561459 330888 -353182 473105 -21412.9 -44279.4)
(-493937 428971 -207075 441823 12211.6 32716.6)
(-459873 436139 -168899 454927 106732 30988.4)
(-409816 414529 -199529 461329 42015.6 -88153.6)
(-463509 341746 62238.7 405153 59017.6 -35248.2)
(-465608 199600 313320 290329 108041 85700.9)
(-195166 69122 741758 106680 275587 131790)
(-124832 120822 -705535 84505.8 -278701 -120526)
(-249883 296067 -156336 151099 -105414 -59347.5)
(-58745.8 446535 62579.3 92321.9 -18872.6 24917.9)
(263256 547805 9670.59 58569.8 50530.4 1837.21)
(420142 559174 -162104 30281.6 -24706.5 -116638)
(652397 588690 91247.2 -81586.7 3755.08 6131.07)
(795406 544866 293052 -199920 109127 97528.5)
(366200 238835 651647 -120893 317590 166097)
(340607 236329 -592119 -111782 -310372 25532.4)
(931216 586979 1177.3 -290897 -49186.1 18767.5)
(1.07539e+06 676494 149413 -360940 51351.9 -46982.2)
(976659 615441 127977 -325825 108871 -92627.2)
(1.08829e+06 652726 5826.9 -263421 83137.7 -148786)
(1.03531e+06 661351 194423 -289621 64116.8 -91601.6)
(779942 587744 208052 -300148 150884 99272.1)
(341049 289521 284605 -129947 170520 236425)
(461095 246146 -256570 -69952.6 -128657 52045)
(904880 443990 -63237.3 -212952 22508.5 39694.8)
(907218 409229 -78302.5 -258988 26838.5 -46523.8)
(872577 392643 13024.3 -196687 84739.3 -62190.4)
(832333 327218 41758.5 -158154 119239 -63614.2)
(758578 332803 174917 -146034 54751.4 -100857)
(473760 317869 260483 -96134.2 112645 38942.4)
(138371 131027 140437 -27555.1 53494.7 142503)
(27840.9 139842 -35628 43967.1 79694.8 -99096.9)
(-70733.8 311869 -186418 134515 39249.5 -48227)
(-178991 324082 -128690 167464 86321.7 19108.9)
(-200485 274739 -126924 130773 70669.7 42235.1)
(-466515 223581 -180067 136103 9765.21 38201)
(-576653 135551 45331 109040 80718.5 69981.6)
(-298102 63696.9 125879 15149.1 75957.5 45039.7)
(-67895.1 29042.2 67568.8 -11645.2 -34243 -67242.4)
(-372716 105527 -144405 103210 134762 -169969)
(-651885 201757 -36143.3 226399 100555 -65906.5)
(-599294 66113.5 39735.6 210300 100935 4783.23)
(-877024 -122048 -154615 194129 -16166.3 40647)
(-844291 -125031 -109795 188552 -28815.3 77025.8)
(-439311 -190364 142184 62576.7 29481.8 92105.5)
(-439440 -292513 20239.7 -38461.4 -33872.6 72974)
(-287520 -135250 170243 -19504.9 -38455.2 -51660.2)
(-20346.1 26256.6 -314859 32729.6 82345.4 -61364.8)
(-122118 -213802 5474.85 -9430.57 -6655.16 -38005.7)
(-461946 -616787 -61723.2 -82882.1 -112709 -3566.49)
(-499027 -693602 -66622.7 -63666.1 -185214 -10521.8)
(-342787 -719630 92783.3 -115419 -141475 51090)
(-418265 -851350 306781 -249233 -113570 26961)
(-239304 -634862 173542 -249712 -168629 56922)
(-24973.5 -186269 394241 -92953.5 13272.2 -21514.3)
(26899.5 -242029 -377375 -89629.6 -18995.3 -32192.7)
(65067.6 -704679 -141504 -290517 -134181 -3925.33)
(191226 -862321 -237766 -366252 -242495 22455)
(318490 -843286 -63070.1 -358010 -187675 -19081.1)
(291096 -1.01054e+06 -72538 -449538 -206680 -7362.95)
(158541 -1.16967e+06 149709 -505839 -162606 12550.7)
(103877 -1.05e+06 195613 -476215 -106938 66490.4)
(70999.7 -447249 327260 -227269 62819.2 -38934.1)
(-5504.58 -475820 -341081 -215271 -169554 -83414)
(-49269.1 -1.17245e+06 -130242 -484698 -188397 16657)
(-13819.7 -1.41826e+06 -142786 -578782 -224739 29046.6)
(21170.6 -1.43996e+06 -78903.6 -589735 -171871 -32910.3)
(30412.3 -1.54619e+06 -64701 -591025 -186848 -46942.7)
(56552.6 -1.69459e+06 110362 -663569 -178841 22525.9)
(-19790.1 -1.53025e+06 198018 -638963 -59458.9 64598.9)
(-37156.1 -663525 310910 -286039 150238 30438.8)
(-6326.23 -617257 -328552 -265735 -250660 -46553.9)
(25883.4 -1.43696e+06 -75995.6 -611297 -213609 18808.1)
(82763.9 -1.56761e+06 -46363.7 -665972 -158107 -1510.85)
(175634 -1.42992e+06 -40300.9 -567988 -93910.9 -75665.2)
(254089 -1.47908e+06 -28834.3 -541807 -120989 -66348.9)
(251528 -1.50952e+06 84861.3 -570124 -95454.7 -1775.75)
(240711 -1.20291e+06 163924 -454561 36235.2 95632.4)
(118193 -490447 281018 -178666 165443 77414.1)
(53232.4 -444143 -279395 -199844 -212630 78603.6)
(263801 -929780 74102.2 -437248 -109946 56905.7)
(473903 -897386 48719 -420123 -111907 -60711)
(565079 -792355 80642.8 -320631 -117972 -139270)
(582803 -816151 25776 -299182 -140265 -89438.6)
(555895 -812610 152590 -286881 -142663 -42729.9)
(403629 -663951 123458 -170727 -60460 77933.4)
(128793 -286886 149740 -45116.1 26960.7 118707)
(296920 -130024 -190182 -86264.3 -85250.8 83443.4)
(539254 -265107 -75327.2 -121448 -18514.1 38353.7)
(506157 -278653 -111617 -92398.5 -63366.1 -41849.4)
(496163 -246356 -21022.2 -111390 -106636 -86368)
(495193 -196101 16365.8 -66731.2 -102338 -50404.3)
(411711 -230705 126893 -77256.8 -125776 -26142)
(248418 -233440 102917 -75014.6 -108016 9397.21)
(99560 -96050.1 86564.7 -10313.9 -33578.9 73569.3)
(-98016.4 -16641.5 -76918.4 103138 -41061.4 -55820.4)
(-151834 -133414 -48471 104870 -74528 -29500.4)
(-198032 -136400 -136320 72791.9 -110074 -11602.1)
(-343261 -3625.97 -116521 209262 -89992.9 15636.2)
(-362349 -142150 -49367.2 131522 -74287.2 28095.8)
(-324848 -179637 -36885 57133.6 -42558.7 30853.8)
(-294198 49081.2 5114.22 194422 -2172.53 26010.2)
(-132653 70567 68162.8 130607 -1202.77 -3673.08)
(-90975.7 -140695 -157387 97306.2 -49654.9 -139407)
(-259521 -336432 -25693.5 165994 -75787.7 -65683.1)
(-387363 -177449 -143014 263480 -104441 -9268.32)
(-442279 -108241 -79948 328625 -102004 26710.4)
(-446047 -360405 17451 168852 -20384.2 68880.1)
(-387439 -164453 21126.8 185891 40328.5 67486.6)
(-324439 91385.2 20076.8 288848 30189.8 42334.8)
(-159585 21962.7 204299 137975 48374.9 8946.68)
(-107028 -109024 -221929 44182.3 59988.8 -126019)
(-179045 -95544.3 22697 160728 81146 -77549.6)
(-307030 71284.2 -173152 273989 31948.6 30756.4)
(-343328 -47777.1 64161.8 163505 92484.5 18608.4)
(-232308 -167759 103178 52701.8 155625 113327)
(-292668 144958 103746 210550 184654 25908.1)
(-244693 305596 115645 232950 143441 17120.6)
(-76018.1 98460.9 343942 69041.3 140255 -2151.07)
(-78948.4 86627.5 -334438 127535 44931.5 -82752.1)
(-216869 342660 -4231.85 283488 136212 -39732.7)
(-135571 575089 -198704 256416 107870 36270.3)
(-75808.6 616601 43503.5 204788 179659 -941.666)
(-84970.4 606429 39085.1 190581 177638 92970.2)
(13051.7 781568 -2091.21 216307 187692 5245.17)
(46148.9 896872 110736 309294 193180 -3211.24)
(26284.1 424189 344267 179242 180007 -7847.97)
(109772 384387 -301247 146612 -59579.3 -42967.6)
(169926 908261 -43869.3 278990 75908.1 4467.52)
(162611 1.09551e+06 -115229 285354 127126 -8013.75)
(253899 1.09393e+06 25133.7 271471 140115 -19425.5)
(303906 1.03434e+06 91797.4 186394 115919 13484.4)
(282243 1.15526e+06 1338.72 178993 136498 3697.87)
(286243 1.19897e+06 114777 231690 165695 14233.1)
(156463 555766 253401 120596 155905 34523.9)
(121220 461731 -187088 47165.6 -79943.9 29701.5)
(295620 1.08478e+06 -49915 97760.6 29574.6 -3440.2)
(378833 1.23872e+06 -81733.6 87935.3 84593.7 -34817.7)
(366651 1.10669e+06 -1803.31 22116.4 78983.9 -100287)
(414721 969214 65792 -40653.8 112843 -48015.3)
(390749 1.0418e+06 -137319 -18164.2 108085 -43088.7)
(208459 974461 31922.8 11100 166370 65048)
(70212.6 410853 110554 3834.39 153479 134900)
(48783.9 317029 -118244 -23938.5 -10520.1 67380.7)
(172617 763378 -10722.7 -34002.4 130353 -6866.66)
(225176 842304 -98513.9 -28526.2 154731 -47052.5)
(260123 754847 49965.3 -69248.4 167976 -121601)
(228091 625186 206590 -134565 199794 -59266.9)
(141939 663564 -1079.21 -102289 145238 -34546.5)
(118771 705732 167965 -32174.2 190636 59737.4)
(46142.7 308462 128416 -13663.1 124212 142215)
(95192.7 105122 -65111.9 -2013.4 33495.3 35031)
(169105 195476 -24094.4 -36657.5 122880 -593.066)
(261376 263366 -77165.4 -4221.71 115709 -28096.3)
(324002 294765 35252.2 19459.4 153944 -32263)
(178957 150499 82079.2 -82725.7 126953 -18195.2)
(176973 218771 -86.9242 -39645.4 87725.2 -3729.73)
(203708 293927 74082.1 17646.4 107859 12929.8)
(69153.4 103902 52035 -14471 37308.1 34916.5)
(-39007 -48608.1 -16248.1 -58209.1 -25849.1 6510.85)
(66603.6 11637.2 85480.9 -43329.2 49716.6 13322.4)
(66401 29510.8 -64171.9 -7379.41 -10331.5 -23190.2)
(-153150 -121464 -42764.6 -89776.9 -28028.2 -4084.31)
(-39173.8 -52542.1 96219.4 -65910.3 36428.1 18613.8)
(16577.8 -6312.26 -62665.1 -29202.3 -12395.7 -14719.5)
(-191208 -141723 -39605.9 -92238.3 -17500.7 2711.46)
(-133018 -97223.6 66091.5 -61428.7 30296.6 835.482)
(88550.6 39183.4 -11234.4 -48588.1 -34285.9 -19983.8)
(-66571.8 50153.5 -36853.5 -52986.8 -11195.7 -26613.3)
(-357589 -147129 -243800 -84229 -96547.4 -24469.2)
(-188375 -244122 -27123.8 -173122 -78200.3 -807.062)
(-193233 -135549 10775.4 -131338 -35870.5 16760.1)
(-404838 -212531 -187236 -111784 -69405.2 7107.99)
(-193060 -276575 -10177 -162152 -48051.4 14582.7)
(4453.7 -113570 114916 -88413.5 27495.5 33422.4)
(-210204 -58337.5 -72675.5 13684.3 -36769.4 -87223)
(-379991 -186880 -111060 -13149.1 -145397 -75830.3)
(-296411 -446843 -193755 -168599 -214777 11484.3)
(-345755 -555287 79409.2 -248458 -130769 6526.3)
(-396278 -477207 -2832.58 -224177 -127229 46418.5)
(-346200 -609190 -98253.2 -260824 -102828 17448.9)
(-359974 -616244 116043 -243806 -55767.8 7940.46)
(-190922 -247274 219995 -100466 13615.4 73234.8)
(-168089 -285226 -231705 -72915.4 -84185.5 -95455.6)
(-405001 -665241 -61365.7 -172547 -139026 -60425.6)
(-405263 -835264 -91374.8 -273566 -194287 -2507.31)
(-400030 -912030 34009.1 -379697 -164033 20538.3)
(-433383 -885904 30022.6 -398552 -100701 61327)
(-314971 -907073 -81030.8 -386738 -79835.6 -5468.11)
(-269941 -897922 82707.9 -385204 -76874.3 7542.91)
(-156676 -419972 401248 -191256 58404 74448.3)
(-57824.8 -360981 -347532 -160596 -104895 -49194.8)
(-102974 -835415 -96443.8 -336047 -76733.8 -40223.6)
(-123594 -1.073e+06 -67675.2 -400310 -129077 -29907.1)
(-40788.2 -1.11713e+06 69876.9 -448012 -105083 26777.3)
(94859.1 -984240 63984.9 -418808 -72710.5 12178.7)
(58335.1 -1.015e+06 -55513.9 -406462 -97904.2 -19918.2)
(141243 -923147 129039 -381794 -61473 37810.3)
(140111 -373825 408669 -170988 54255.1 62477.4)
(113380 -303856 -313817 -115178 -55989.7 3199.03)
(216884 -748712 -96067.6 -272424 -42005.9 -48343.2)
(358025 -883409 -11670.4 -328917 -55611.3 -6507.2)
(423752 -845492 66547.1 -325398 -64036.6 -42716.9)
(387710 -739142 38443.8 -289585 -107532 -44194.4)
(470848 -706520 -122561 -297630 -160982 -18927.5)
(365234 -652375 76254.3 -265070 -109283 37942.9)
(112864 -278057 248523 -103299 -8124.18 119547)
(136387 -196673 -229780 -46465.7 -30345.1 -14224.5)
(409216 -413659 -95040.1 -105299 -42101.2 -43386.3)
(393774 -519975 -87817.8 -137709 -81015 -26764.6)
(291841 -539436 -2144.97 -145961 -103946 -50933.4)
(358416 -333767 123785 -88110.9 -130974 -37387.5)
(236482 -354009 -92492.5 -103333 -209921 -13170.9)
(139003 -408861 112129 -130489 -146025 45562.1)
(90040.4 -152172 198886 -48183 -46061 140305)
(136807 -60951.2 -52458 -14904.7 -23397.9 -31891.2)
(261833 -130983 43149.6 133.4 -22287.6 -10735.6)
(364658 -168686 2770.98 -27285.7 -88754.7 -34894)
(412504 -179256 110264 -53991.6 -61557 1271.5)
(221084 -121776 135615 22468.9 -50381.6 5930.89)
(283765 -140048 -16817.4 -3669.15 -112826 -13072.2)
(368702 -166400 117616 -35901.9 -46557.8 33955.8)
(133148 -67525.7 91291.2 1903.89 -25669.3 49434.8)
)
;

boundaryField
{
    bottom
    {
        type            calculated;
        value           nonuniform List<symmTensor> 
64
(
(112207 -43504.1 49630.9 -25198.9 19072.1 -12945.3)
(-81415 -115766 65776.9 38135.6 -399.83 -37336)
(-137351 33730 -25681.9 134976 -55299.1 -24378)
(188862 83278.3 -9955.02 983.587 -2677.81 4372.02)
(288654 -208222 244724 -178131 66611.3 44908.3)
(-51014.9 -393156 364810 -119532 -144.321 119821)
(-235632 -243229 176744 58088.3 -82934.3 107780)
(-84309.1 -7080.92 27900.2 70147.3 -49328 28508.7)
(21584 117719 -24925.1 17789.9 39075.8 -71434.2)
(6309.39 61371.6 63238.6 -27709.5 -28682.6 -65868.5)
(219099 -168344 166353 -197345 -95157.4 68950.8)
(110330 -263359 287551 -145203 27210.9 97557.8)
(-222991 149170 239044 203439 93930.1 54779.6)
(-73597.2 554183 101946 281128 73768.5 50039.8)
(37611.5 291618 67395.5 70436.2 -2814.27 34576.5)
(-98345.8 98335.7 46601.1 -13895.7 -37262.5 5143.69)
(-30862.1 -55064.9 -33100 -25436.2 -20692.8 -35337.8)
(-26079.4 -52981.2 -20365.5 -94638.6 20162.1 -23603)
(183104 342662 27260 4433.97 149096 8768.42)
(-42635.8 472803 124345 216745 112499 33067.6)
(-60858.4 -53245.6 59300.6 56625.7 -85986.4 84473.6)
(27893.5 -521734 12024.3 -160292 -175080 47697.4)
(-139279 -288476 -25146.4 9189.65 -199512 -13622.2)
(88717.2 156146 -37918.6 82998.8 -114676 -12879.9)
(-201417 175096 -132297 36436.7 69366.2 -63176.3)
(-4060.56 229515 -218628 69218.9 132889 -156714)
(-118596 -27061.4 -243281 -3225.37 47029.9 -144086)
(58458.8 -159419 -258156 -172575 -32495.4 -27722.2)
(313242 166010 -106456 -99061.6 16835.2 50728.6)
(-60189.6 469444 24635.4 247937 -42799 70008.4)
(-212752 273440 -116987 244316 -244348 88115.7)
(225314 166096 -135661 33884.6 -168712 46008.9)
(-174328 -131362 -148710 -92487 17871.1 -123093)
(-83446.6 -198405 -199052 -136934 27911.8 -212189)
(-68771.5 38302 -244112 -29436.4 57399.3 -82094.4)
(-39678 137960 -359636 135059 71165.5 -12500.2)
(-310646 134796 -558803 246383 -73180.1 -113515)
(-124832 120822 -705535 84505.8 -278701 -120526)
(340607 236329 -592119 -111782 -310372 25532.4)
(461095 246146 -256570 -69952.6 -128657 52045)
(27840.9 139842 -35628 43967.1 79694.8 -99096.9)
(-372716 105527 -144405 103210 134762 -169969)
(-20346.1 26256.6 -314859 32729.6 82345.4 -61364.8)
(26899.5 -242029 -377375 -89629.6 -18995.3 -32192.7)
(-5504.58 -475820 -341081 -215271 -169554 -83414)
(-6326.23 -617257 -328552 -265735 -250660 -46553.9)
(53232.4 -444143 -279395 -199844 -212630 78603.6)
(296920 -130024 -190182 -86264.3 -85250.8 83443.4)
(-98016.4 -16641.5 -76918.4 103138 -41061.4 -55820.4)
(-90975.7 -140695 -157387 97306.2 -49654.9 -139407)
(-107028 -109024 -221929 44182.3 59988.8 -126019)
(-78948.4 86627.5 -334438 127535 44931.5 -82752.1)
(109772 384387 -301247 146612 -59579.3 -42967.6)
(121220 461731 -187088 47165.6 -79943.9 29701.5)
(48783.9 317029 -118244 -23938.5 -10520.1 67380.7)
(95192.7 105122 -65111.9 -2013.4 33495.3 35031)
(-39007 -48608.1 -16248.1 -58209.1 -25849.1 6510.85)
(88550.6 39183.4 -11234.4 -48588.1 -34285.9 -19983.8)
(-210204 -58337.5 -72675.5 13684.3 -36769.4 -87223)
(-168089 -285226 -231705 -72915.4 -84185.5 -95455.6)
(-57824.8 -360981 -347532 -160596 -104895 -49194.8)
(113380 -303856 -313817 -115178 -55989.7 3199.03)
(136387 -196673 -229780 -46465.7 -30345.1 -14224.5)
(136807 -60951.2 -52458 -14904.7 -23397.9 -31891.2)
)
;
    }
    left
    {
        type            calculated;
        value           nonuniform List<symmTensor> 
64
(
(112207 -43504.1 49630.9 -25198.9 19072.1 -12945.3)
(165202 -73330.1 -44235.1 -18541.7 -1299.11 -3367.41)
(58722.8 -22371.8 -15724.8 -13979.2 5738.16 48442.7)
(23592 372.835 48271.8 -24337.7 -50671.3 20147.5)