/*--------------------------------*- C++ -*----------------------------------*\
| =========                 |                                                 |
| \\      /  F ield         | OpenFOAM: The Open Source CFD Toolbox           |
|  \\    /   O peration     | Version:  v2012                                 |
|   \\  /    A nd           | Website:  www.openfoam.com                      |
|    \\/     M anipulation  |                                                 |
\*---------------------------------------------------------------------------*/
FoamFile
{
    version     2.0;
    format      ascii;
    class       pointSymmTensorField;
    location    "1";
    object      pEpsilon;
}
// * * * * * * * * * * * * * * * * * * * * * * * * * * * * * * * * * * * * * //

dimensions      [0 0 0 0 0 0 0];


internalField   nonuniform List<symmTensor> 
729
(
(0 0 0 0 0 0)
(0 0 0 0 0 0)
(0 0 0 0 0 0)
(0 0 0 0 0 0)
(0 0 0 0 0 0)
(0 0 0 0 0 0)
(0 0 0 0 0 0)
(0 0 0 0 0 0)
(0 0 0 0 0 0)
(0 0 0 0 0 0)
(0 0 0 0 0 0)
(0 0 0 0 0 0)
(0 0 0 0 0 0)
(0 0 0 0 0 0)
(0 0 0 0 0 0)
(0 0 0 0 0 0)
(0 0 0 0 0 0)
(0 0 0 0 0 0)
(0 0 0 0 0 0)
(0 0 0 0 0 0)
(0 0 0 0 0 0)
(0 0 0 0 0 0)
(0 0 0 0 0 0)
(0 0 0 0 0 0)
(0 0 0 0 0 0)
(0 0 0 0 0 0)
(0 0 0 0 0 0)
(0 0 0 0 0 0)
(0 0 0 0 0 0)
(0 0 0 0 0 0)
(0 0 0 0 0 0)
(0 0 0 0 0 0)
(0 0 0 0 0 0)
(0 0 0 0 0 0)
(0 0 0 0 0 0)
(0 0 0 0 0 0)
(0 0 0 0 0 0)
(0 0 0 0 0 0)
(0 0 0 0 0 0)
(0 0 0 0 0 0)
(0 0 0 0 0 0)
(0 0 0 0 0 0)
(0 0 0 0 0 0)
(0 0 0 0 0 0)
(0 0 0 0 0 0)
(0 0 0 0 0 0)
(0 0 0 0 0 0)
(0 0 0 0 0 0)
(0 0 0 0 0 0)
(0 0 0 0 0 0)
(0 0 0 0 0 0)
(0 0 0 0 0 0)
(0 0 0 0 0 0)
(0 0 0 0 0 0)
(0 0 0 0 0 0)
(0 0 0 0 0 0)
(0 0 0 0 0 0)
(0 0 0 0 0 0)
(0 0 0 0 0 0)
(0 0 0 0 0 0)
(0 0 0 0 0 0)
(0 0 0 0 0 0)
(0 0 0 0 0 0)
(0 0 0 0 0 0)
(0 0 0 0 0 0)
(0 0 0 0 0 0)
(0 0 0 0 0 0)
(0 0 0 0 0 0)
(0 0 0 0 0 0)
(0 0 0 0 0 0)
(0 0 0 0 0 0)
(0 0 0 0 0 0)
(0 0 0 0 0 0)
(0 0 0 0 0 0)
(0 0 0 0 0 0)
(0 0 0 0 0 0)
(0 0 0 0 0 0)
(0 0 0 0 0 0)
(0 0 0 0 0 0)
(0 0 0 0 0 0)
(0 0 0 0 0 0)
(0 0 0 0 0 0)
(0 0 0 0 0 0)
(0 0 0 0 0 0)
(0 0 0 0 0 0)
(0 0 0 0 0 0)
(0 0 0 0 0 0)
(0 0 0 0 0 0)
(0 0 0 0 0 0)
(0 0 0 0 0 0)
(0 0 0 0 0 0)
(0 0 0 0 0 0)
(0 0 224414 0 50397.9 -51781.1)
(0 0 61584.3 0 -126669 -97562.9)
(0 0 -213118 0 -143283 50.6726)
(0 0 164605 0 141316 17437.4)
(0 0 741913 0 214946 162196)
(0 0 639883 0 24118.1 317086)
(0 0 168618 0 -140295 114035)
(0 0 -181246 0 14818.1 -233956)
(0 0 -5797.45 0 -35670.5 119825)
(0 0 707104 0 160407 253490)
(0 0 550040 0 128031 119253)
(0 0 -473250 0 -178647 -79768)
(0 0 -518414 0 -144546 -199355)
(0 0 28073.3 0 -112503 -93460.1)
(0 0 119522 0 65690.5 92604.4)
(0 0 -108086 0 102734 -72886.3)
(0 0 -454778 0 13134.7 -265356)
(0 0 -382986 0 -158186 24883)
(0 0 518587 0 -5681.02 273527)
(0 0 619538 0 3072.58 196386)
(0 0 -205508 0 -278501 41940.5)
(0 0 -522356 0 -7182.95 -345310)
(0 0 -302870 0 37170 -301263)
(0 0 -193368 0 85149.7 63159.3)
(0 0 -148243 0 114949 66424.6)
(0 0 -423332 0 -80693 -161920)
(0 0 -644662 0 -417790 -27959.3)
(0 0 -245120 0 -346270 142095)
(0 0 173701 0 177791 -147063)
(0 0 -212679 0 126064 -55119.3)
(0 0 -459724 0 55128 -35154.4)
(0 0 -584205 0 -125149 -144430)
(0 0 -930408 0 -333362 -214134)
(0 0 -958741 0 -334133 -78091.1)
(0 0 -677069 0 -206365 66084.8)
(0 0 -118019 0 89857 -249325)
(0 0 -477071 0 7579.19 -228369)
(0 0 -270719 0 108154 73183.4)
(0 0 -92438.4 0 1084.65 -22369.4)
(0 0 242755 0 -29053.5 47278)
(0 0 258435 0 -106972 58731.8)
(0 0 83228.9 0 -33836.3 267689)
(0 0 -78014 0 -116418 26043.4)
(0 0 99087.3 0 19242.1 -105978)
(0 0 -321322 0 8126.47 -242914)
(0 0 -657499 0 -153957 -138909)
(0 0 -773149 0 -167235 -57870.5)
(0 0 -546389 0 -63122 70666.6)
(0 0 -273614 0 -29809.5 -127565)
(448828 50397.9 -25890.5 0 0 0)
(211979 -13314.4 -32625.4 0 0 0)
(22911.6 41272.8 64260 0 0 0)
(71456.5 7402.64 104555 0 0 0)
(43153.4 -52747.8 95870.1 0 0 0)
(-27384 -103404 61414 0 0 0)
(-59918.5 -110828 21379.6 0 0 0)
(-362492 14818.1 -116978 0 0 0)
(-282653 12614.3 -199101 0 0 0)
(-677529 38454.8 -223385 0 0 0)
(-794027 36625.8 -186196 0 0 0)
(-691702 13159.6 -121087 0 0 0)
(-493178 -12662.9 -48765.7 0 0 0)
(-266876 -30116.8 6330.02 0 0 0)
(239044 65690.5 46302.2 0 0 0)
(656979 144764 69403.6 0 0 0)
(749718 223434 64726.3 0 0 0)
(659731 274555 61955.2 0 0 0)
(503736 285336 53361.7 0 0 0)
(300195 263893 33151.7 0 0 0)
(87008.9 193760 9808.34 0 0 0)
(-1.04471e+06 -7182.95 -172655 0 0 0)
(-1.44694e+06 -33229.2 -207806 0 0 0)
(-1.60527e+06 -46209.8 -179838 0 0 0)
(-1.56264e+06 -54313.9 -103731 0 0 0)
(-1.29233e+06 -64130.6 -4776.75 0 0 0)
(-791663 -30206.7 80463.8 0 0 0)
(-184904 26782.2 109585 0 0 0)
(347401 177791 -73531.3 0 0 0)
(243413 214321 -84339.6 0 0 0)
(98356 251432 -69298 0 0 0)
(-139856 249084 -24268.9 0 0 0)
(-433502 154345 33169.2 0 0 0)
(-507404 119599 81985.7 0 0 0)
(-273044 115066 125468 0 0 0)
(-236038 89857 -124662 0 0 0)
(-637712 33225.5 -210308 0 0 0)
(-420019 97599.4 -187132 0 0 0)
(-340422 141371 -147691 0 0 0)
(-952280 -10147.5 -128727 0 0 0)
(-413424 66010.2 -37580.3 0 0 0)
(1463.46 138356 9017.12 0 0 0)
(-156028 -116418 13021.7 0 0 0)
(422442 29759.9 39666.6 0 0 0)
(-156839 -44518.7 -6713.87 0 0 0)
(-455763 -135035 -14882.5 0 0 0)
(299067 3214.65 22345.2 0 0 0)
(-232756 -61619.3 -7093.88 0 0 0)
(-532074 -122857 -1670.96 0 0 0)
(0 -78014 0 -232837 13021.7 0)
(0 211221 0 59519.7 39666.6 0)
(0 -78419.3 0 -89037.4 -6713.87 0)
(0 -227881 0 -270070 -14882.5 0)
(0 149534 0 6429.31 22345.2 0)
(0 -116378 0 -123239 -7093.88 0)
(0 -266037 0 -245715 -1670.96 0)
(0 99087.3 0 38484.1 -52989.2 0)
(0 -99023.6 0 -77114.6 -132861 0)
(0 -483352 0 -230284 -135418 0)
(0 -199699 0 -103096 -128864 0)
(0 -265115 0 -158614 -132571 0)
(0 -511406 0 -171715 -88916.4 0)
(0 -257130 0 -107939 -65173.9 0)
(0 -321322 0 16252.9 -121457 0)
(0 -438596 0 -30218.9 -193246 0)
(0 -736601 0 -336778 -167719 0)
(0 -637959 0 -323675 -161221 0)
(0 -619411 0 -311322 -64676.8 0)
(0 -849510 0 -401645 -73434.1 0)
(0 -638974 0 -293923 -81295.7 0)
(0 -657499 0 -307915 -69454.3 0)
(0 -912420 0 -368306 -118516 0)
(0 -1.0733e+06 0 -358963 -149058 0)
(0 -1.10131e+06 0 -499372 -114479 0)
(0 -1.02282e+06 0 -459840 -88369.4 0)
(0 -1.07604e+06 0 -374144 -90548.3 0)
(0 -952325 0 -471102 -67600.9 0)
(0 -773149 0 -334470 -28935.2 0)
(0 -1.00272e+06 0 -333496 -60320.4 0)
(0 -1.23019e+06 0 -540477 -89593.4 0)
(0 -1.026e+06 0 -393237 -70617.4 0)
(0 -908417 0 -322783 -72369.5 0)
(0 -1.07378e+06 0 -469083 -110027 0)
(0 -672104 0 -212848 -57353.9 0)
(0 -546389 0 -126244 35333.3 0)
(0 -795710 0 -295484 -29968 0)
(0 -721153 0 -146211 -13709.3 0)
(0 -687539 0 -221666 -118119 0)
(0 -471461 0 -220653 -204756 0)
(0 -569035 0 -178001 -204953 0)
(0 -446376 0 -200348 -181741 0)
(0 -273614 0 -59618.9 -63782.3 0)
(0 -250052 0 60152.5 -85253.6 0)
(0 -479263 0 -169295 -155042 0)
(0 -345746 0 -46671.1 -152499 0)
(0 -96421.6 0 136547 -140637 0)
(0 -471109 0 -151223 -166781 0)
(0 -266295 0 7615.54 -98869.5 0)
(547229 29809.5 63782.3 0 0 0)
(500104 -30076.3 85253.6 0 0 0)
(958526 84647.6 155042 0 0 0)
(691491 23335.5 152499 0 0 0)
(192843 -68273.3 140637 0 0 0)
(942218 75611.6 166781 0 0 0)
(532590 -3807.77 98869.5 0 0 0)
(-166458 33836.3 -133844 0 0 0)
(-204454 39211.9 -154130 0 0 0)
(-208672 23802.9 -167725 0 0 0)
(-145336 45261.4 -100656 0 0 0)
(-23170 75252.3 -52403.7 0 0 0)
(-403998 11376.9 -71088.6 0 0 0)
(-255977 25134.2 -29036.6 0 0 0)
(1.35414e+06 206365 -33042.4 0 0 0)
(1.17379e+06 109579 -89464.7 0 0 0)
(1.26396e+06 138233 7829.42 0 0 0)
(1.0747e+06 153612 113496 0 0 0)
(1.07458e+06 100364 166053 0 0 0)
(999431 140778 237022 0 0 0)
(654217 45761.9 176175 0 0 0)
(490241 346270 -71047.7 0 0 0)
(601348 395577 -94015 0 0 0)
(589771 370210 -98261.6 0 0 0)
(561878 315009 -79547.6 0 0 0)
(618175 255275 -4875.67 0 0 0)
(342123 277937 125869 0 0 0)
(-100731 100872 108830 0 0 0)
(411015 278501 -20970.2 0 0 0)
(703803 368126 33500.5 0 0 0)
(938787 387010 103464 0 0 0)
(1.0641e+06 368802 166928 0 0 0)
(958338 332705 213028 0 0 0)
(528651 289835 208772 0 0 0)
(520307 162909 138090 0 0 0)
(-56146.7 112503 46730.1 0 0 0)
(-275989 175022 5915.83 0 0 0)
(-467865 206299 -63456.3 0 0 0)
(-594669 214711 -125773 0 0 0)
(-660735 202592 -165403 0 0 0)
(-569709 168847 -175256 0 0 0)
(-179248 98733.7 -120636 0 0 0)
(-337237 140295 -57017.5 0 0 0)
(-51715.3 268835 -51329.9 0 0 0)
(334448 346187 -15004.6 0 0 0)
(682253 370376 33283.7 0 0 0)
(921657 342658 76376.5 0 0 0)
(1.02416e+06 270617 102943 0 0 0)
(879067 160440 100906 0 0 0)
(0 -168618 0 280589 -57017.5 0)
(0 -25857.7 0 537670 -51329.9 0)
(0 167224 0 692374 -15004.6 0)
(0 341126 0 740753 33283.7 0)
(0 460829 0 685315 76376.5 0)
(0 512078 0 541234 102943 0)
(0 439533 0 320880 100906 0)
(0 -639883 0 -48236.2 -158543 0)
(0 -845888 0 648.415 -195901 0)
(0 -860512 0 47621.2 -174134 0)
(0 -740013 0 91506.5 -114588 0)
(0 -514909 0 141405 -40136.4 0)
(0 -198327 0 183117 39226.8 0)
(0 41665.3 0 183114 85528.9 0)
(0 -741913 0 -429892 -81098 0)
(0 -1.03408e+06 0 -532107 -149493 0)
(0 -1.10417e+06 0 -498879 -188017 0)
(0 -1.01267e+06 0 -378404 -191438 0)
(0 -783353 0 -182413 -167368 0)
(0 -405208 0 55732 -111996 0)
(0 -257488 0 33254.1 -92989.4 0)
(0 -164605 0 -282632 -8718.71 0)
(0 -302671 0 -410522 -54326.5 0)
(0 -358409 0 -420466 -91530 0)
(0 -394221 0 -350582 -109188 0)
(0 -373384 0 -203833 -87955.7 0)
(0 -224818 0 -129340 37729.9 0)
(0 -320738 0 -227658 36274.7 0)
(0 213118 0 286567 -25.3363 0)
(0 163861 0 203337 -7920.53 0)
(0 93943.4 0 52129.7 -8634.95 0)
(0 -56091.3 0 -110541 3867.99 0)
(0 -103403 0 -7076.9 104788 0)
(0 -5918.15 0 -69508.1 137169 0)
(0 9088.18 0 -133843 101283 0)
(0 -61584.3 0 253338 48781.4 0)
(0 -13094.5 0 251333 94860.6 0)
(0 46109 0 137717 115654 0)
(0 4044.33 0 137123 65428.4 0)
(0 98679.5 0 269812 62315.8 0)
(0 233145 0 353580 66164.3 0)
(0 286697 0 334286 52040.2 0)
(0 -224414 0 -100796 25890.5 0)
(0 -105990 0 26628.9 32625.4 0)
(0 -11455.8 0 -82545.6 -64260 0)
(0 -35728.3 0 -14805.3 -104555 0)
(0 -21576.7 0 105496 -95870.1 0)
(0 13692 0 206807 -61414 0)
(0 29959.3 0 221655 -21379.6 0)
(0 0 29959.3 0 110828 -42759.2)
(0 0 286697 0 167143 104080)
(0 0 9088.18 0 -66921.3 202565)
(0 0 -320738 0 -113829 72549.5)
(0 0 -257488 0 16627.1 -185979)
(0 0 41665.3 0 91556.9 171058)
(0 0 439533 0 160440 201811)
(0 0 133438 0 30116.8 -12660)
(0 0 -723373 0 -199594 -136000)
(0 0 -611874 0 -63342.1 -184653)
(0 0 304925 0 216848 81513.5)
(0 0 401680 0 154335 310102)
(0 0 113132 0 166496 118869)
(0 0 -89624 0 98733.7 -241273)
(0 0 -43504.5 0 -193760 -19616.7)
(0 0 638140 0 22375.1 231799)
(0 0 668183 0 201965 198087)
(0 0 -350211 0 4096.13 16290.6)
(0 0 -523202 0 66047.6 -144882)
(0 0 152514 0 298102 -37421.6)
(0 0 260154 0 162909 276180)
(0 0 92452.1 0 -26782.2 -219171)
(0 0 67195.1 0 198.14 -224278)
(0 0 14717 0 -118519 -40536.5)
(0 0 413749 0 34400.9 138301)
(0 0 697065 0 425100 155291)
(0 0 286352 0 372946 260849)
(0 0 -50365.5 0 100872 217661)
(0 0 136522 0 -115066 -250935)
(0 0 383485 0 54951.9 142198)
(0 0 663239 0 193804 73288.8)
(0 0 887160 0 284762 100160)
(0 0 994177 0 388098 133409)
(0 0 672489 0 168163 114838)
(0 0 327108 0 45761.9 352350)
(0 0 -731.729 0 -138356 -18034.2)
(0 0 327346 0 39232.6 -79868.8)
(0 0 97538.3 0 23615.9 -221675)
(0 0 -268382 0 411.77 -107510)
(0 0 -301086 0 100371 -4303.65)
(0 0 -215784 0 98558 65713.1)
(0 0 -127988 0 25134.2 -58073.1)
(0 0 266037 0 122857 3341.93)
(0 0 257130 0 53969.6 130348)
(0 0 638974 0 146961 162591)
(0 0 952325 0 235551 135202)
(0 0 672104 0 106424 114708)
(0 0 446376 0 100174 363481)
(0 0 266295 0 -3807.77 197739)
(61584.3 27288.5 28604.2 -14818.1 51831.7 -32625.4)
(13094.5 7829.92 -153910 -12614.3 94987.9 90150.5)
(-46109 134953 -92957.6 -38454.8 122051 137180)
(-4044.33 164226 -27653.8 -36625.8 46087.9 31610.1)
(-98679.5 105472 -55868 -13159.6 5140.19 -43141)
(-233145 34899.6 -58850.1 12662.9 -4657.09 -74490.4)
(-286697 -16852.6 -19174.1 30116.8 48536.8 -61414)
(-437533 -93941.9 19505.2 35670.5 -92789.7 -94860.6)
(-269850 -122486 -33573.7 -11269.1 -5577.91 -66872.3)
(-105399 -47739.1 -36381.9 -121682 51598.2 29432.2)
(20363.1 -76752.4 -80496.7 -218779 -17940.2 53337.9)
(81825.8 -223865 -214879 -251575 -65116.9 -735.905)
(19610.2 -287801 -193300 -248768 -47803.4 10275.5)
(20871.1 -272812 55241.4 -199594 54395 66164.3)
(103021 -219559 -53180.3 -160407 -114207 7920.53)
(289577 -163144 134181 -124226 -17394.5 8609.61)
(404518 -15466.8 213568 -73106.9 11324.1 -11788.5)
(398265 -12.4665 185981 -79709.1 -63737.5 -113423)
(472063 -145955 50049.1 -44756.3 -93340.6 -133301)
(457963 -211626 -42028.2 -42793.7 -39180.6 3505.15)
(607434 -165451 4923.68 -63342.1 -63540.3 137169)
(955031 -95905.5 191872 -128031 72817.3 54326.5)
(1.19794e+06 -47004.3 167688 -140655 19457.1 82811.3)
(1.19811e+06 51927.7 135466 -124556 3256.27 54861.8)
(956580 84933.2 105140 -62410.1 -12559.5 -3574.36)
(679951 1101.5 51376.8 82895.9 -55415.6 -146918)
(399289 8263.94 98259.7 212161 17956.1 -124230)
(266576 110688 -15273.2 216848 -11956.6 37729.9)
(475278 178026 591952 178647 152969 149493)
(543217 185163 251915 189720 49634.1 106919)
(502103 187659 30598.2 162846 4318.1 41944.3)
(345792 145945 -157707 124314 -25969.8 -20648.9)
(141526 16038.4 -327641 116566 -50681.7 -79441.3)
(-26491.8 9259.77 -263681 173683 28597.1 -74378.9)
(-362403 98147.2 -227231 154335 91458.5 -111996)
(-573295 81587 410904 144546 49676.7 195901)
(-1.00822e+06 27992.9 61232.8 220127 18370.4 15590.7)
(-1.27139e+06 -19141.2 -139444 263348 -8947.79 -81313.5)
(-1.3538e+06 -68115.6 -285162 280711 -39237.6 -133997)
(-1.24418e+06 -131687 -392716 285108 -62504.2 -153815)
(-917285 -123994 -385757 244845 -50527.2 -125665)
(-697021 -15340.5 -196111 166496 75496.5 39226.8)
(-639883 -26095.7 -66342.8 112503 -111052 51329.9)
(-845888 -68835.1 -265872 175022 -99988.4 -42012.8)
(-860512 -105061 -270559 206299 -82498.8 -84613.6)
(-740013 -125791 -204096 214711 -61121.6 -91381.1)
(-514909 -129833 -105544 202592 -32822.1 -69659.8)
(-198327 -96648 30260.9 168847 3481.15 -24529.3)
(41665.3 966.451 298803 98733.7 74990.3 102943)
(-5797.45 34610.9 -40706.9 -15292.6 -29789.2 -199101)
(156618 -105615 -44275.8 -158079 -39196.1 -106407)
(28140.6 -120860 -150889 -182161 11772.6 12904.4)
(201373 -37679 -18626.7 -267153 8652.29 102298)
(504016 10642.1 86214.7 -338083 -3390.18 137431)
(713759 42489.6 137891 -367296 -7507.08 127417)
(723373 63065.3 157295 -304587 12117.1 48765.7)
(888350 157630 200171 -229403 -534.58 68966.5)
(798542 90720.8 192523 -172424 6210.95 -106004)
(648789 146344 201215 -83766.6 39532.8 -99133.4)
(640891 331422 409575 -60938.7 55262.9 68096.5)
(874582 362184 399819 -113728 31270.5 93536.5)
(911301 310669 204934 -158084 4730.02 45994.7)
(745312 222451 -313881 -144768 -92454.7 -63369.6)
(555838 202681 328465 -156418 128464 152007)
(305112 131665 -218021 -105309 38875.9 7545.94)
(143508 167861 -201865 -27039.1 56068 5070.93)
(-237308 363286 82837.9 130280 72130.5 31873.4)
(-418551 369742 199519 166806 17705.4 -15334.4)
(-792907 222593 -2113.15 248477 17037.6 -73837.9)
(-1.0283e+06 121326 -386734 268886 -22516.4 -141744)
(-1.18035e+06 104269 147551 299503 68466.1 30002.5)
(-1.23313e+06 101082 -297587 365612 6305.84 -96108.9)
(-919388 127217 -358722 304988 -8582.51 -113200)
(-756812 263964 -174778 196928 1309.28 36692.5)
(-733427 196430 -162541 127851 -44229.5 59197.9)
(-839460 -64845.5 -348581 99763.8 -58888.6 -40966.8)
(-1.01355e+06 -123576 -84114.8 117925 92015.6 23999.6)
(-1.06845e+06 -24625.3 -367607 220627 -122693 -64774.6)
(-1.0526e+06 76346.4 -125392 344979 -15971.7 -45603.6)
(-728993 195004 35962.9 384464 22021.6 -41518.7)
(-387412 344981 259724 340854 34085.6 -30217)
(-255955 288479 208590 300906 4466.94 -58734.4)
(84385 1139.54 -46392.7 154506 -10496 -39346.3)
(191793 -107681 78035.1 49420.6 97115.4 165028)
(501323 43244.1 -298860 21045.5 -79888.5 -84669.4)
(713905 152000 9964.5 66950.3 -12059.4 72144.1)
(843295 253995 158235 90649.9 27923.6 116253)
(810269 338202 309460 126108 49427.4 106737)
(535063 325171 354846 216686 61287.9 48616.3)
(459602 136589 198821 268708 21386.4 -138638)
(491304 83225.3 135225 206545 70302.5 -80199.8)
(518414 259336 118836 138206 -69487.6 -5915.83)
(590874 298943 145264 99290.8 -4482.73 110186)
(557344 282759 93436.8 40822.4 39390.4 131689)
(423347 235817 32425.9 -1574.12 68675.7 101947)
(170490 151724 -45841.7 -9952.42 91257.3 49482.8)
(-5237.09 -1453.65 -160472 19217.5 104843 -44766.9)
(113132 -6441.8 -112710 2468.96 103016 -175256)
(-108086 221922 146023 22001 100221 69403.6)
(-56735.6 314451 152704 45843.5 83224.3 18424.1)
(-304145 239389 7083.31 84664.6 43122.4 -7448.33)
(-623805 188343 -84526.1 90939.7 -10281.8 -11364.6)
(-791451 139569 -137318 77290.3 -63486.2 -28803.6)
(-799026 65268 -167984 17543.8 -110403 -43553.4)
(-638140 -31680.4 -132998 -56899 -183574 -33151.7)
(-574300 122258 -117858 -72840.5 128651 50070.1)
(-626294 207849 -211297 -13129.2 71814 49233.7)
(-801651 112792 -389907 117939 12150.9 -96131.2)
(-1.15672e+06 143667 -362871 258311 -3106.53 -107658)
(-1.22242e+06 222830 -202849 300493 -4491.48 -81544.3)
(-1.05029e+06 243309 -16249.2 271574 -13526.8 -21032)
(-711688 197422 345087 199793 -12716.5 127605)
(-274901 319776 -124460 75257.7 49403 -157132)
(-156703 365760 8077.81 117946 88424.1 -15339.9)
(172167 216286 -255693 44312.2 46728.6 -19347.8)
(286075 236512 -299290 26321.7 14074.2 -29096.2)
(610654 379782 -38318 -37649.9 23836.3 23821)
(937060 394300 188035 -78944.5 48759.6 78070.5)
(988351 322435 503975 -55177.4 142891 152658)
(973365 339734 28001.1 13082.2 -66968.6 38240)
(818409 382855 302689 116227 26205.9 18008.7)
(753048 240607 116553 152361 11842 -139122)
(806438 232869 148603 70016.3 -29559.3 -128606)
(974735 362420 380972 -49537 691.641 46977.1)
(1.27044e+06 282756 389443 -177722 29013.3 90010.8)
(1.19139e+06 122371 16725.7 -182447 31743.8 53905.1)
(1.00252e+06 55670.4 303178 -97953.9 -18924.9 197238)
(770025 53600.8 -64676.8 6262.6 -36429.1 72616.7)
(441047 414.698 -256881 141625 -25277.1 -27692.2)
(310942 51767.5 -113608 158502 -71253.7 -100314)
(-40660.6 246821 221119 283871 -43762.9 -74326.7)
(-208049 215855 304768 329853 30141.5 -36625.1)
(-502726 689.345 -171694 270764 52483.5 -95219)
(-724094 -73285.8 220397 273245 -76486.2 101218)
(-872505 -58654.5 -270604 355129 -81009.1 -40490.1)
(-795649 -55379.1 -448109 290206 -37285.4 -107244)
(-511638 -1759.74 -433500 203846 -27230.6 -104276)
(-483353 204942 -182661 230608 32731.2 42638.1)
(-634570 222141 -117524 270476 126951 65284.2)
(-783356 38179.4 -70257.5 206450 215628 -36611.9)
(-619538 135061 -225047 233767 -242952 -33500.5)
(-556586 252972 -182552 220555 -104220 -124435)
(-309068 321639 -118926 163911 -17740.9 -133427)
(26787.8 375067 -1874.68 100299 50264.7 -109563)
(221458 463422 157149 52683.3 119748 -41844.9)
(70015.8 408091 91201.8 109089 235460 74937.8)
(152514 168680 122807 2138.37 259651 208772)
(-302870 -8504.29 -437052 -112101 43302.2 -207806)
(-400203 115591 -221383 -69556.9 57358.2 -7183.35)
(-419903 164712 -91311.1 -27998.1 56469.8 104076)
(-435526 180131 48213.8 25471.6 34151.7 175062)
(-390247 209851 202697 130991 22149.9 184195)
(-250474 190497 321470 144294 21039.4 114362)
(-67195.1 89914.1 253985 78693.6 -42726.4 -80463.8)
(328988 98463 -97984.4 -23330.2 7757.44 -162488)
(442058 196279 26886.2 -113879 43534 25858.9)
(570425 164615 53349.6 -137803 27580.9 102448)
(538160 96258.5 49037.5 -53660.6 13175 144677)
(410577 58048.6 84803.5 -23843.5 27278.5 149265)
(255556 -12110.2 124057 -15462.4 19587.3 92234.5)
(77735.1 -81458.9 80578.6 32576.8 -10997.3 -89225.8)
(154627 41362 -48784.9 -41993.3 -54410.3 -37001.4)
(13658.5 255546 82334.3 69173.1 -83100.9 -69395.9)
(-25661.7 301800 120786 203773 -21912.6 1689.97)
(-142788 206517 50700 218181 -19672.5 17594.6)
(-295560 160098 34175.5 166034 -615.412 40838.3)
(-362835 70223 35730.2 55411.9 -15689.4 40489.9)
(-346554 -19573.3 -20507 -8161.44 -92068.6 -5526.92)
(-229963 17688.1 -249542 -33037.8 54542.3 41022.4)
(-308622 257406 -190790 63246 -6384.87 45335.6)
(-397688 315991 -130806 180122 56502.6 3718.7)
(-523531 255100 -121696 273335 -11541.4 -93178.1)
(-724202 375004 -36836.4 371620 6183.72 -104928)
(-791355 382770 92436.2 321455 50550 -54520.2)
(-682348 346876 257698 280666 38186.7 60187.3)
(-496420 458128 -318614 327681 23923.8 -121260)
(-376220 574785 -143886 322476 58533.5 -26699.4)
(-253006 599823 -156377 352575 114501 82799.6)
(-58664.3 465946 -230760 323450 92342.5 48759.6)
(-17571.8 523812 -162486 269549 20973.8 -43197.7)
(66802.7 682352 69250.1 366352 103823 -18745.9)
(127398 589417 435178 322050 321340 81658.5)
(178211 656351 -305379 337205 -219009 -40184.2)
(289361 831508 80683.7 435748 10075.1 -43569.3)
(335012 720592 165854 307422 93325 -46699.3)
(485754 553044 56600.1 186093 50799.3 -117115)
(650705 629766 77123.8 144397 37505.7 -97530.8)
(760570 578820 186408 -48188.8 151735 44239.7)
(747430 422101 257661 -129939 295725 184414)
(644662 444676 -143347 -72136 -203825 94015)
(762765 405125 -4790.33 -258547 -73452.8 27213.9)
(698571 358071 38642.1 -248777 -7533.45 -14467.4)
(636978 244927 36340.8 -215190 30752.2 -93385.9)
(703379 286919 142271 -232341 -4951.04 -205416)
(546506 375355 271934 -149056 91326 -113706)
(286352 219950 150743 -117147 158011 125869)
(-212679 -139137 47073.4 -97039.9 83164.3 -84339.6)
(-409784 -121990 -97473.6 -66454.7 38071.1 4233.29)
(-558371 -219957 -148968 -143809 21028.1 60070.7)
(-708620 -282536 -195500 -195685 -26563.5 102467)
(-761012 -83680.7 -158236 -53983.1 -2767.22 106255)
(-622861 -96181.6 -18915.8 -96216.9 39382.7 92298.5)
(-383485 -74067.8 91301.7 -111574 -9515.37 -81985.7)
(-633424 25769.3 -176915 29590.8 62094.5 -70424.7)
(-930574 -167177 -154318 -70954.4 -14581 -78741.9)
(-1.11112e+06 -315711 -143312 -128580 -69958.9 -54646.8)
(-1.13803e+06 -166241 -130948 20754.2 -63113 -26396.5)
(-1.05844e+06 -183616 -27471.1 -53008.9 -15397.1 7010.87)
(-798573 -248908 105188 -111064 290.195 61599.2)
(-526717 -24359.3 230375 39034.4 37724.3 118061)
(-371526 -86931.1 -426761 -23004.3 -35272.3 -47284.9)
(-520730 -257742 -311768 -77791.1 -160287 -39508)
(-538856 -100155 -203689 129761 -161220 -36238.1)
(-475513 -80243 -85765.6 194365 -113675 -50447.2)
(-652637 -117730 75512 228183 -55121.2 -1643.4)
(-629919 -176471 286982 168858 19820.3 70888)
(-503675 -73494.6 536647 142135 89282.9 85166.3)
(-470684 -222147 -510002 113864 -89600.2 -91743.9)
(-419783 -385117 -304672 -4145.59 -74926 -42373.7)
(-337198 -306139 -151495 18174.7 -40104.6 8390.71)
(-221297 -321790 -172003 54287.6 -56894.2 -22767.2)
(-250606 -412594 -57357.1 33934.6 -63402.5 -72694)
(-423067 -509260 237283 46232.9 -16056.1 87276.1)
(-330937 -438213 611360 -33989.1 116821 156047)
(-374535 -437535 -597740 -51639.4 -253000 -143607)
(-375509 -563944 -215842 -81264.6 -168095 611.849)
(-100629 -510309 -62131.5 -206682 -119800 32500.9)
(19065.1 -470301 -56545.5 -135397 -23737.4 -47144.7)
(77822 -586989 -30540.3 -212218 -68876.3 -25983.4)
(250723 -635038 281789 -384782 -4426.04 86895.4)
(214671 -440776 734002 -324729 234463 137089)
(253339 -388050 -582957 -310818 -273184 -54695.7)
(641755 -435580 -3021.68 -476674 -105027 797.672)
(767157 -246371 119790 -382679 29785.7 -15091.1)
(891907 -206195 -70180.9 -294077 -25235.4 -114101)
(988506 -286249 75279.4 -381358 -43482.5 -54301.7)
(975627 -146614 281703 -325063 91234.1 94929.9)
(667068 -79899.5 446293 -274388 107255 124088)
(958741 2891.64 -273925 -312434 -86187.8 89464.7)
(1.30602e+06 50060.8 49891.4 -356365 4008.61 -40871.8)
(1.19786e+06 11330.3 43897.6 -346407 -56748.2 -202961)
(1.16507e+06 2173.28 82238.8 -269748 8380.19 -158223)
(1.33583e+06 55556.8 94990.6 -180023 -17347.3 -123525)
(1.00206e+06 -30491.6 167136 -266560 -71177.5 -10122.5)
(672489 45269.9 278567 -75738 1455.67 237022)
(-477071 129647 -216520 294209 -26663.7 -210308)
(-345702 2918.97 -99334.7 184561 -58131.9 -62469.4)
(-242711 129960 24595.8 295950 22780.5 62617.3)
(-645317 48833.6 -174995 384119 -58566.7 58404.9)
(-506662 -181097 -17541.9 151130 -32268.2 110111)
(-141392 -24533 253950 181218 118792 137744)
(-327346 45141.2 123323 237923 30564.2 37580.3)
(-152700 -146735 -92224.1 106822 60391.2 -106678)
(168692 -129958 235158 199193 93590 14731.4)
(-249479 -136792 -27758.6 267853 -63261 22819.4)
(-253475 -395635 -25361.9 97585.7 -62219.6 100870)
(75788.1 -315763 373364 81972.8 74208.8 114887)
(66073.8 -112293 159140 82613.5 -36234.2 38517.3)
(-98270 -144164 121606 -982.249 -47091.5 -31027.6)
(384633 -72448.3 -23582 47001.6 93975.4 25647.1)
(393522 -218525 -20472.5 -50423.1 -31579.7 20374)
(124624 -251821 -43343.3 -34409.4 -57207.2 39888.9)
(528672 -285803 89423.8 -131353 16443.9 57110.1)
(496094 -363582 166114 -173640 25501.2 35847.8)
(267014 -185848 178251 -68312.4 55214.5 -3238.48)
(595728 7277.54 77229.5 -46842.1 45885.5 -101384)
(513474 -31956.8 17433.3 28808.7 12906.3 41145.7)
(408590 -108442 4697.47 -39444.4 -10145.9 98566.9)
(703204 -10372 -81594.4 -95395.9 -27999.3 -5293.75)
(534613 -44630.4 29674.9 -45286 4905.93 -36783.8)
(580306 -216635 66710.7 -167635 -33882.2 48865.1)
(523554 -124187 97954.6 -169476 691.42 3156.73)
(398625 -5794.87 -117154 -49211.3 49096.3 -84717.1)
(350874 -132658 149488 -166127 -96425.2 60691)
(352399 -176544 20967.2 -234654 -76010.9 34602.1)
(261627 -146920 -103466 -217362 -24781.5 -43325.2)
(213545 -265919 -72965 -278483 -65459.9 -53010.4)
(258571 -342222 89783.4 -317858 -26282.2 978.525)
(29045.9 -255577 -33422 -314182 30393.2 -3078.84)
(-52597.9 -210110 -234764 -281674 54701.3 -18344.3)
(-159526 -208567 255212 -271011 -86480.3 82120)
(-156199 -217403 -10728.4 -355281 -44315.1 -1417.03)
(-139379 -201358 -96917.1 -348776 -58218.1 -128437)
(-38259.5 -187686 93876.7 -247121 42424.7 -69772.1)
(-168369 -375699 52470 -321459 26314.5 -56942.6)
(-180917 -162823 10262.3 -223077 58332.2 8966.66)
(-173098 -75438 -63891.5 -67988.7 157290 103259)
(-258435 -148241 36430.6 -176555 28806.4 154130)
(-400219 -119131 -30506.4 -139655 92375.8 33880.5)
(-143540 9077.89 -28754 -53585.3 70581.3 -53473.7)
(-96900.7 -561.393 -23217.2 -130276 -6223.58 -115321)
(-248003 -153256 85577.2 -168638 4234.25 -29567.3)
(-154668 80825.6 109831 -65166.8 -10061.2 -23367.1)
(-215784 18872.5 -84571.3 -49569.7 -32964.4 -71088.6)
(99087.3 -49388.4 79116 89857 -47451.3 39666.6)
(-99023.6 -178707 -66633 33225.5 -69204.2 -19735.6)
(-483352 -162576 -287261 97599.4 -175963 -54549.1)
(-199699 -110879 49544.5 141371 -49978.7 29059)
(-265115 -277723 -10534.1 -10147.5 -27655.5 7788.6)
(-511406 -146285 -252244 66010.2 -81826.1 -24016.1)
(-257130 -26619 25602.1 138356 35318.2 7093.88)
(-243308 -176263 -116751 7579.19 -76370.9 -132861)
(-649817 -195286 -407676 95352.8 -120531 -82429.3)
(-658182 -183291 -130841 132323 -56221.8 3996.61)
(-410078 -336060 35949.3 -60286.2 -24012 2847.04)
(-768945 -332769 -199364 4091.6 -16446.2 39947.6)
(-733131 -140298 -29177.6 88258 28182.5 67397.5)
(-372937 -175725 215891 -39232.6 62895.9 88916.4)
(-756586 -221959 -227530 108154 10741.1 -193246)
(-813396 -147880 -200468 84071.1 -75434.2 -46262.6)
(-589953 -261914 -106501 -100966 -44881.1 32024.6)
(-901616 -310912 65787.6 -140978 39132.1 103043)
(-757707 -275482 -83674.2 -145777 37545.3 87787.2)
(-564634 -120926 -10597.1 -47119.8 55041.6 -16618.9)
(-695196 -139560 423541 -23615.9 155830 73434.1)
(-451827 -133900 -409949 1084.65 -97668.8 -118516)
(-564122 -51909.7 -141440 28573.4 7810.8 -79603.3)
(-493593 -109968 -55384.6 -45979.6 10924.5 4037.44)
(-388043 -75712.8 70543.4 -61893.8 -7293.27 60688.1)
(-289005 -8148.83 8790.98 -67293.5 56606.3 23930.6)
(-224266 45951.5 16951.9 -80671.7 39542.9 20768.5)
(-33130.2 154459 549991 -411.77 120414 90548.3)
(111111 166795 -448965 -29053.5 -71554.5 -60320.4)
(116709 147419 -184248 -114718 -21156.3 -60658.2)
(352152 175046 56032.3 -97788.8 14185.4 -10297)
(413776 124890 159069 -147420 63106.5 17223.9)
(551361 149774 -82079.9 -188220 -16346.3 -39409.7)
(507006 240494 60954 -118753 36655.8 15015.6)
(505949 218232 479818 -100371 118347 110027)
(499534 197930 -415279 -106972 -59188.1 -29968)
(752666 298522 -99848.6 -98581.8 36068.2 -49042.6)
(750931 164565 21361.8 -170875 32429 -88151.2)
(680256 135092 83905.5 -190479 -41768.8 -191046)
(811995 238834 25118.4 -134358 -9995.45 -86834.1)
(602666 156799 -15834.7 -190258 -46553.2 23015.1)
(405809 163008 263759 -98558 28072 204953)
(546389 73175.5 -142693 -33836.3 81960.3 -85253.6)
(795710 124985 -87840.4 -39211.9 49645.7 -91259.2)
(721153 88720.8 -40992.1 -23802.9 57156.6 -67244.9)
(687539 91750.5 250480 -45261.4 126788 14404.8)
(471461 60955.8 39696.2 -75252.3 63.8173 -14282.6)
(569035 145500 17539.9 -11376.9 3311.55 41767.2)
(446376 114081 326425 -25134.2 52324.1 166781)
)
;

boundaryField
{
    bottom
    {
        type            calculated;
    }
    left
    {
        type            calculated;
    }
    front
    {
        type            calculated;
    }
    right
    {
        type            calculated;
    }
    back
    {
        type            calculated;
    }
    top
    {
        type            calculated;
    }
}


// ************************************************************************* //
