/*--------------------------------*- C++ -*----------------------------------*\
| =========                 |                                                 |
| \\      /  F ield         | OpenFOAM: The Open Source CFD Toolbox           |
|  \\    /   O peration     | Version:  v2012                                 |
|   \\  /    A nd           | Website:  www.openfoam.com                      |
|    \\/     M anipulation  |                                                 |
\*---------------------------------------------------------------------------*/
FoamFile
{
    version     2.0;
    format      ascii;
    class       pointScalarField;
    location    "1";
    object      pEpsilonEq;
}
// * * * * * * * * * * * * * * * * * * * * * * * * * * * * * * * * * * * * * //

dimensions      [0 0 0 0 0 0 0];


internalField   nonuniform List<scalar> 
729
(
0
0
0
0
0
0
0
0
0
0
0
0
0
0
0
0
0
0
0
0
0
0
0
0
0
0
0
0
0
0
0
0
0
0
0
0
0
0
0
0
0
0
0
0
0
0
0
0
0
0
0
0
0
0
0
0
0
0
0
0
0
0
0
0
0
0
0
0
0
0
0
0
0
0
0
0
0
0
0
0
0
0
0
0
0
0
0
0
0
0
0
0
267820
175159
296535
250776
898447
769022
264447
261572
90126.1
854124
656939
586516
635499
147678
169152
178914
554337
478759
625996
727272
400637
645656
405569
247579
221088
509196
887242
498955
303295
287836
535160
696574
1.15012e+06
1.17352e+06
818507
238673
571593
340140
107783
284064
325334
206423
162749
136296
404941
785230
914216
636856
328994
306288
147061
89500.6
130069
129585
140066
136316
277377
297615
522040
572911
482105
333893
181431
184414
475601
567416
546871
474478
366565
231409
724495
994766
1.09145e+06
1.0505e+06
864750
537025
179342
320927
311548
308209
303648
341690
377439
267914
237167
491110
371213
327470
652127
289235
160102
170637
287390
116770
341947
201075
170902
382037
180099
251313
108549
319299
174636
157720
348145
132261
198124
599605
282910
358231
610214
314636
396799
553793
900754
789857
748474
1.02035e+06
769149
790555
1.09043e+06
1.27392e+06
1.32117e+06
1.22445e+06
1.2716e+06
1.14628e+06
920787
1.18105e+06
1.46914e+06
1.21612e+06
1.07405e+06
1.28501e+06
791719
637810
940324
838550
818975
611478
708395
572318
326839
307680
592492
437450
216920
585813
328040
373767
349363
670781
494216
221619
662780
372989
194235
228699
240036
160088
107008
281870
176319
934458
799394
857675
749638
750605
738423
484146
522893
617371
591782
530150
506714
419695
184034
423184
634299
778250
849562
785036
542522
425595
145563
273393
399252
489621
534073
472459
216060
284823
317907
458048
625505
736114
760230
625576
277913
364539
500644
632856
706870
702819
562960
761894
1.0026e+06
1.01427e+06
866827
603774
263437
164228
908195
1.25754e+06
1.33541e+06
1.21649e+06
932914
486856
316892
267825
448311
510901
527006
463323
276991
402434
311540
232938
114343
98212.9
170056
165170
147477
191714
200752
170583
118686
224758
365891
403571
269366
129278
93322.6
127965
133499
155844
153760
135596
389431
155943
395953
322709
162777
556784
158182
871223
720896
435457
538171
245573
222666
229677
753333
816773
404563
616549
387457
399407
183581
168452
140528
488190
948436
570108
194949
265501
457268
799364
1.07795e+06
1.23555e+06
804086
447925
160214
384397
187799
318081
366485
277406
155507
338375
315577
764807
1.13637e+06
789460
581178
334587
94899
217966
264575
203384
146765
164254
198632
321551
215057
132389
215241
417417
440730
366335
330400
345562
389035
400924
431156
407691
447191
718863
852386
845249
678929
500505
327456
190143
764195
452998
352289
328438
407953
342048
426470
695604
764212
943969
1.03886e+06
1.0299e+06
831986
590722
505985
706811
725873
631260
462269
242225
357919
144296
239812
261444
289396
497767
646783
634184
730187
672870
572919
748507
866899
783893
729103
625094
385288
327178
490241
596170
667413
897654
937082
1.01706e+06
842424
693830
628319
717190
752842
901274
849927
688428
653441
524686
125952
209257
510043
464406
603271
705368
628701
450216
386108
461275
502387
470848
383793
236376
224463
243650
344600
419436
366056
506129
596620
579130
475807
454298
556622
727035
960405
978858
849864
743827
450089
462642
406374
481696
604809
810215
954611
748534
756697
609454
653058
891704
1.04955e+06
860841
748171
499870
404914
291867
448488
536520
492543
677281
796552
822260
650607
533409
637121
652134
651576
588559
483144
453938
601760
554678
403924
519050
383450
388022
427744
498484
501175
331093
333726
407888
462491
369829
280794
214604
166164
161736
334369
403083
323143
334234
289270
252321
336997
442239
526420
564633
769352
798374
768332
801837
797121
807793
650863
664702
834323
935483
900309
1.00555e+06
895009
732581
856153
886013
840324
730844
772160
705436
605162
717671
708679
427924
211320
315973
476558
618668
571549
445048
235319
467017
628309
794092
799073
723866
611101
488215
552318
589759
514738
434524
555390
636333
756488
735217
631959
460796
456928
514079
726914
923529
924060
758948
625023
554916
704111
888116
1.07892e+06
927250
829231
749040
780238
895410
856203
766282
820281
1.02277e+06
988744
926555
1.00057e+06
803221
542668
538924
333985
348300
646302
476014
382712
365732
265478
347801
347284
519629
571613
230201
231719
271268
376049
316011
523498
608619
366935
459607
322179
293335
514920
388796
517234
454854
343980
393954
406184
349649
433568
528202
371120
404559
445271
328251
302758
279325
465091
245761
268256
309502
308540
107030
33814.6
239595
175865
149516
126347
246564
554577
251552
367527
500975
239964
297418
702693
558391
468016
692449
566458
429406
625900
635506
502302
709085
605472
387488
728791
578060
403957
347107
293383
197481
159671
678188
569030
307211
348126
413279
493233
478168
717988
657431
662005
620424
610930
675339
510388
463901
455309
603937
528168
580626
355998
407334
487889
)
;

boundaryField
{
    bottom
    {
        type            calculated;
    }
    left
    {
        type            calculated;
    }
    front
    {
        type            calculated;
    }
    right
    {
        type            calculated;
    }
    back
    {
        type            calculated;
    }
    top
    {
        type            calculated;
    }
}


// ************************************************************************* //
