/*--------------------------------*- C++ -*----------------------------------*\
| =========                 |                                                 |
| \\      /  F ield         | OpenFOAM: The Open Source CFD Toolbox           |
|  \\    /   O peration     | Version:  v2012                                 |
|   \\  /    A nd           | Website:  www.openfoam.com                      |
|    \\/     M anipulation  |                                                 |
\*---------------------------------------------------------------------------*/
FoamFile
{
    version     2.0;
    format      ascii;
    class       pointVectorField;
    location    "1";
    object      pointD;
}
// * * * * * * * * * * * * * * * * * * * * * * * * * * * * * * * * * * * * * //

dimensions      [0 1 0 0 0 0 0];


internalField   nonuniform List<vector> 
729
(
(0 0 0)
(0 0 0)
(0 0 0)
(0 0 0)
(0 0 0)
(0 0 0)
(0 0 0)
(0 0 0)
(0 0 0)
(0 0 0)
(0 0 0)
(0 0 0)
(0 0 0)
(0 0 0)
(0 0 0)
(0 0 0)
(0 0 0)
(0 0 0)
(0 0 0)
(0 0 0)
(0 0 0)
(0 0 0)
(0 0 0)
(0 0 0)
(0 0 0)
(0 0 0)
(0 0 0)
(0 0 0)
(0 0 0)
(0 0 0)
(0 0 0)
(0 0 0)
(0 0 0)
(0 0 0)
(0 0 0)
(0 0 0)
(0 0 0)
(0 0 0)
(0 0 0)
(0 0 0)
(0 0 0)
(0 0 0)
(0 0 0)
(0 0 0)
(0 0 0)
(0 0 0)
(0 0 0)
(0 0 0)
(0 0 0)
(0 0 0)
(0 0 0)
(0 0 0)
(0 0 0)
(0 0 0)
(0 0 0)
(0 0 0)
(0 0 0)
(0 0 0)
(0 0 0)
(0 0 0)
(0 0 0)
(0 0 0)
(0 0 0)
(0 0 0)
(0 0 0)
(0 0 0)
(0 0 0)
(0 0 0)
(0 0 0)
(0 0 0)
(0 0 0)
(0 0 0)
(0 0 0)
(0 0 0)
(0 0 0)
(0 0 0)
(0 0 0)
(0 0 0)
(0 0 0)
(0 0 0)
(0 0 0)
(0 0 0)
(0 0 0)
(0 0 0)
(0 0 0)
(0 0 0)
(0 0 0)
(0 0 0)
(0 0 0)
(0 0 0)
(0 0 0)
(0 0 0)
(0 0 0)
(0 0 0)
(0 0 0)
(0 0 0)
(0 0 0)
(0 0 0)
(0 0 0)
(0 0 0)
(0 0 0)
(0 0 0)
(0 0 0)
(0 0 0)
(0 0 0)
(0 0 0)
(0 0 0)
(0 0 0)
(0 0 0)
(0 0 0)
(0 0 0)
(0 0 0)
(0 0 0)
(0 0 0)
(0 0 0)
(0 0 0)
(0 0 0)
(0 0 0)
(0 0 0)
(0 0 0)
(0 0 0)
(0 0 0)
(0 0 0)
(0 0 0)
(0 0 0)
(0 0 0)
(0 0 0)
(0 0 0)
(0 0 0)
(0 0 0)
(0 0 0)
(0 0 0)
(0 0 0)
(0 0 0)
(0 0 0)
(0 0 0)
(0 0 0)
(0 0 0)
(0 0 0)
(0 0 0)
(0 0 0)
(0 0 0)
(0 0 0)
(0 0 0)
(0 0 0)
(0 0 0)
(0 0 0)
(0 0 0)
(0 0 0)
(0 0 0)
(0 0 0)
(0 0 0)
(0 0 0)
(0 0 0)
(0 0 0)
(0 0 0)
(0 0 0)
(0 0 0)
(0 0 0)
(0 0 0)
(0 0 0)
(0 0 0)
(0 0 0)
(0 0 0)
(0 0 0)
(0 0 0)
(0 0 0)
(0 0 0)
(0 0 0)
(0 0 0)
(0 0 0)
(0 0 0)
(0 0 0)
(0 0 0)
(0 0 0)
(0 0 0)
(0 0 0)
(0 0 0)
(0 0 0)
(0 0 0)
(0 0 0)
(0 0 0)
(0 0 0)
(0 0 0)
(0 0 0)
(0 0 0)
(0 0 0)
(0 0 0)
(0 0 0)
(0 0 0)
(0 0 0)
(0 0 0)
(0 0 0)
(0 0 0)
(0 0 0)
(0 0 0)
(0 0 0)
(0 0 0)
(0 0 0)
(0 0 0)
(0 0 0)
(0 0 0)
(0 0 0)
(0 0 0)
(0 0 0)
(0 0 0)
(0 0 0)
(0 0 0)
(0 0 0)
(0 0 0)
(0 0 0)
(0 0 0)
(0 0 0)
(0 0 0)
(0 0 0)
(0 0 0)
(0 0 0)
(0 0 0)
(0 0 0)
(0 0 0)
(0 0 0)
(0 0 0)
(0 0 0)
(0 0 0)
(0 0 0)
(0 0 0)
(0 0 0)
(0 0 0)
(0 0 0)
(0 0 0)
(0 0 0)
(0 0 0)
(0 0 0)
(0 0 0)
(0 0 0)
(0 0 0)
(0 0 0)
(0 0 0)
(0 0 0)
(0 0 0)
(0 0 0)
(0 0 0)
(0 0 0)
(0 0 0)
(0 0 0)
(0 0 0)
(0 0 0)
(0 0 0)
(0 0 0)
(0 0 0)
(0 0 0)
(0 0 0)
(0 0 0)
(0 0 0)
(0 0 0)
(0 0 0)
(0 0 0)
(0 0 0)
(0 0 0)
(0 0 0)
(0 0 0)
(0 0 0)
(0 0 0)
(0 0 0)
(0 0 0)
(0 0 0)
(0 0 0)
(0 0 0)
(0 0 0)
(0 0 0)
(0 0 0)
(0 0 0)
(0 0 0)
(0 0 0)
(0 0 0)
(0 0 0)
(0 0 0)
(0 0 0)
(0 0 0)
(0 0 0)
(0 0 0)
(0 0 0)
(0 0 0)
(0 0 0)
(0 0 0)
(0 0 0)
(0 0 0)
(0 0 0)
(0 0 0)
(0 0 0)
(0 0 0)
(0 0 0)
(0 0 0)
(0 0 0)
(0 0 0)
(0 0 0)
(0 0 0)
(0 0 0)
(0 0 0)
(0 0 0)
(0 0 0)
(0 0 0)
(0 0 0)
(0 0 0)
(0 0 0)
(0 0 0)
(0 0 0)
(0 0 0)
(0 0 0)
(0 0 0)
(0 0 0)
(0 0 0)
(0 0 0)
(0 0 0)
(0 0 0)
(0 0 0)
(0 0 0)
(0 0 0)
(0 0 0)
(0 0 0)
(0 0 0)
(0 0 0)
(0 0 0)
(0 0 0)
(0 0 0)
(0 0 0)
(0 0 0)
(0 0 0)
(0 0 0)
(0 0 0)
(0 0 0)
(0 0 0)
(0 0 0)
(0 0 0)
(0 0 0)
(0 0 0)
(0 0 0)
(0 0 0)
(0 0 0)
(0 0 0)
(0 0 0)
(0 0 0)
(0 0 0)
(0 0 0)
(0 0 0)
(0 0 0)
(0 0 0)
(0 0 0)
(0 0 0)
(0 0 0)
(0 0 0)
(0 0 0)
(0 0 0)
(0 0 0)
(0 0 0)
(0 0 0)
(0 0 0)
(0 0 0)
(0 0 0)
(0 0 0)
(0 0 0)
(0 0 0)
(0 0 0)
(0 0 0)
(0 0 0)
(0 0 0)
(0 0 0)
(0 0 0)
(0 0 0)
(0 0 0)
(0 0 0)
(0 0 0)
(0 0 0)
(0 0 0)
(0 0 0)
(0 0 0)
(0 0 0)
(0 0 0)
(0 0 0)
(0 0 0)
(0 0 0)
(0 0 0)
(0 0 0)
(0 0 0)
(0 0 0)
(0 0 0)
(56103.6 12599.5 -6472.63)
(26497.4 -3328.61 -8156.34)
(2863.96 10318.2 16065)
(8932.07 1850.66 26138.7)
(5394.17 -13186.9 23967.5)
(-3423 -25850.9 15353.5)
(-7489.82 -27706.9 5344.9)
(15396.1 -31667.3 -12195.4)
(3273.61 -31416.6 -23715.1)
(-11527.3 -17214.6 -28913.4)
(-1011.08 -17140.3 -16357.1)
(-24669.9 -33726.5 -15578.9)
(-58286.2 -44197.5 -16541.1)
(-71674.1 -41785.8 -13010.1)
(-53279.6 -35820.8 6.33407)
(-40965.2 -25417.1 1980.13)
(-23485.9 -6516.22 2158.74)
(14022.8 13817.7 -966.999)
(25850.6 884.612 -26196.9)
(1479.54 8688.51 -34292.3)
(-2272.05 16730.3 -25320.7)
(41151.3 35329.1 2179.68)
(75667.8 51315.3 13581.6)
(89602.2 52558.2 22882.5)
(98555.2 43822.8 27297.1)
(93345.9 25479.1 21988.9)
(56204.6 16167.5 -9432.48)
(80184.4 28457.3 -9068.68)
(185478 53736.4 20274.5)
(258520 66513.4 37373.3)
(276042 62359.9 47004.3)
(253168 47300.5 47859.4)
(195838 22801.6 41842.1)
(101302 -6966.5 27999.1)
(64371.9 -4156.76 23247.3)
(159971 6029.52 39635.8)
(211472 -81.0518 48975.4)
(215128 -5952.64 43533.5)
(185003 -11438.3 28647)
(128727 -17675.6 10034.1)
(49581.7 -22889.6 -9806.69)
(-10416.3 -22889.2 -21382.2)
(42154.6 -35073.6 14254.4)
(6464.42 -67208.7 12832.5)
(-41806 -86546.8 3751.15)
(-85281.6 -92594.1 -8320.91)
(-115207 -85664.4 -19094.1)
(-128019 -67654.3 -25735.9)
(-109883 -40110 -25226.4)
(-45311.6 3704.52 -29244.4)
(-35331.6 3153.58 -49775.2)
(-84691.1 9613.69 -55846.1)
(-99253.3 9156.46 -46549.1)
(-86462.7 3289.91 -30271.7)
(-61647.3 -3165.72 -12191.4)
(-33359.5 -7529.2 1582.51)
(-1449.36 -8917.61 14978.2)
(39154.6 2817.29 17241.6)
(7035.15 30420.5 -11522.8)
(50343.2 54694.8 -7541.72)
(126004 62893.8 5501.33)
(178440 62192.1 15842.4)
(180843 49898.6 17000)
(176776 40101.8 31686.3)
(164304 31056.4 38001.9)
(77506.3 18276.7 33572.8)
(60969.3 19927.3 39269.6)
(132183 11189.1 41541.1)
(166178 10698.4 35436)
(152969 15835.5 23081.6)
(137510 32007.7 14906.6)
(115433 35163.7 7500.63)
(42912.2 31139 -9120.63)
(-8983.74 15602.5 -20799.4)
(21366.3 -20724 52.5079)
(-19787 -53040.2 -5999.89)
(-76231.2 -54212 -10189.2)
(-118312 -44661.7 -9971)
(-143978 -47430.1 -16193.7)
(-152341 -40711.4 -21371.9)
(-128234 -31078.6 -26573.3)
(-51173.9 -29141.5 -28926.2)
(-43687 -43420.6 -41257)
(-100420 -38583.9 -38762.7)
(-129604 -36136.4 -24919.4)
(-147719 -55031.8 -21167.4)
(-139336 -65837 -6883.37)
(-105837 -70177.7 7895.87)
(-42622.5 -71276.9 19800.8)
(1309.27 -61211.2 20049.9)
(-28282.9 -41624 -14858.6)
(7018.34 -28125.8 -11682.5)
(34498.6 -43755.6 -1478.96)
(58483.1 -51574.8 15864.1)
(74333.6 -53677.7 31443.2)
(82591.9 -50647.9 41350.9)
(71213.6 -42211.8 43813.9)
(22406 -24683.4 30159.1)
(29880.5 16422.6 11575.6)
(82122.3 36191 17350.9)
(93714.7 55858.4 16181.6)
(82466.3 68638.8 15488.8)
(62966.9 71333.9 13340.4)
(37524.3 65973.2 8287.92)
(10876.1 48439.9 2452.08)
(-27021.4 25683.6 -9110.78)
(-14183.9 11689.2 12517.5)
(-76036.3 3727.01 3197.65)
(-155951 -1905.67 -11515.3)
(-197863 -5294.41 -23716.8)
(-199757 -4676.55 -31901.3)
(-159535 -5593.78 -28974.8)
(-113695 3283.68 -33169.5)
(-74451.2 910.119 -39282.9)
(-106698 243.547 -37004.4)
(-206712 -18752.4 -44119.9)
(-242638 -40816.8 -44278.5)
(-225049 -53430.8 -38164.6)
(-167046 -50491.3 -24760.9)
(-95746.6 -39546.6 3110.37)
(-53359.7 -40087.8 9559.99)
(-32994.6 -23688.7 7612.56)
(-84432.5 -5409.21 -25220.6)
(-45199.5 -6483.74 -24539)
(34508.3 -8773.46 -13476.3)
(87552.9 -1024.03 -2036.32)
(129647 -1420.26 34190.8)
(130151 -19731.4 49309.5)
(81563.8 -33756.3 52345)
(-5102.93 -37912.9 42386.4)
(1045.84 -52425 27266.5)
(92561.1 -45593.1 23804.8)
(130800 -16511.9 18110.3)
(154885 768.144 24548.3)
(139147 -16818.6 25304.5)
(77267 -28615.1 14425.7)
(-6696.94 -42965.2 -1506.57)
(-55364.6 -71847.2 -11643.4)
(-17504 -90066.5 9152.97)
(-38128.6 -74525.4 4677.7)
(-51376.9 -69625.2 5242.56)
(-87975.4 -92031.4 -8375.14)
(-117348 -96752.4 -25866.1)
(-133013 -92200.6 -41731.9)
(-119792 -83176.3 -53256.9)
(-66081.4 -72458.7 -52193.1)
(-65038.4 -40727.2 -34522.5)
(-130589 -1795.74 -43163.7)
(-180868 -8307.3 -51951.6)
(-200659 -11552.4 -44959.6)
(-195330 -13578.5 -25932.7)
(-161542 -16032.7 -1194.19)
(-98957.9 -7551.66 20115.9)
(-23113 6695.56 27396.3)
(-75717.5 9292.51 -37657.9)
(-100051 6099.59 -40621.9)
(-104976 935.782 -31193.1)
(-108882 -9883 -15009.9)
(-97561.7 -12229.3 4976.18)
(-62618.6 -5701.47 22306.4)
(-16798.8 -49.5349 28034.8)
(-48342.1 21287.4 7894.91)
(-70353.4 1570 -9250.35)
(-58052.4 7198.66 -9454.07)
(-60790.4 13346.8 -8827.86)
(-58897.6 20601.5 -5055.42)
(-35068.9 30434.5 1381.73)
(-3679.24 29629.9 5067.06)
(-37060.7 28737.2 8303.07)
(-96636.2 6106.96 10255.6)
(-111391 -6951.24 19637)
(-144579 -1901.54 11185.3)
(-171452 -8339.71 -3657.56)
(-153327 -8609.68 -15046.8)
(-103437 -8600.22 -17287.6)
(-105833 -20173.2 -20240)
(-147509 -48995.7 -30315.1)
(-157474 -76117.7 -26914.8)
(-191673 -70704.2 -9615.2)
(-239948 -100109 -14724.9)
(-232908 -125884 -20414.6)
(-174266 -106275 -19411.4)
(-161166 -104448 -3494.91)
(-190691 -143814 -10046.1)
(-174643 -138388 -14387.2)
(-159245 -121139 -21720.9)
(-175845 -128929 -43666.1)
(-136627 -128830 -46103.6)
(-71587.9 -93236.6 -32606.2)
(-61280.1 -86567.5 17761.9)
(-75168.6 -98894.3 23503.7)
(-73721.3 -92552.6 24565.4)
(-70234.8 -78752.3 19886.9)
(-77271.8 -63818.7 1218.92)
(-42765.3 -69484.1 -31467.2)
(12591.4 -25218 -27207.6)
(43425.1 44447.8 -18382.8)
(30426.6 53580.3 -21084.9)
(12294.5 62857.9 -17324.5)
(-17482 62270.9 -6067.23)
(-54187.7 38586.2 8292.29)
(-63425.5 29899.7 20496.4)
(-34130.5 28766.5 31366.9)
(-53169.8 31516.1 -6889.91)
(-102446 40159 -17606.2)
(-139593 38177.9 -26575.4)
(-177155 11509.5 -31267.9)
(-190253 666.468 -33174.5)
(-155715 -810.958 -29515.2)
(-95871.1 -13738 -17774.7)
(-114931 13782 -4394.3)
(-202217 -16383.1 -11821.2)
(-265485 -50699.6 -14271.3)
(-301989 -73297.5 -20880.7)
(-318798 -82325.3 -26883.1)
(-263069 -67283.7 -21291.6)
(-165810 -48450.9 -9161.1)
(-146051 -31287.2 -18053.8)
(-232629 -55899.3 -22936)
(-274307 -68719.3 -28647.2)
(-296033 -73743 -20838.3)
(-353412 -99388.7 -34339)
(-313195 -89137.1 -39011.8)
(-221790 -71190.6 -12520)
(-232602 -83340.6 -26766.8)
(-307163 -100350 -35901.7)
(-349785 -121900 -26613.8)
(-357314 -118775 -27776.5)
(-381449 -119812 -38400)
(-368836 -137181 -34272.4)
(-248544 -97024.5 -16676.2)
(-239685 -83533.2 -9761.39)
(-326506 -125756 -13673.9)
(-299464 -105470 -9561.97)
(-291267 -89488.4 -17446.7)
(-333957 -107946 -38087.2)
(-250514 -78019.3 -31022.1)
(-168122 -42040.6 -14354.7)
(-169267 -51591.2 8260.6)
(-146724 -27394.7 22366.2)
(-157996 -34558.2 -1957.36)
(-134337 -38403 -28374.1)
(-134323 -25091.1 -41513.2)
(-124929 -35194.6 -59255.4)
(-81777.1 -11440.5 -44043.8)
(-29504.7 22464.2 -31165.6)
(-79713.9 8306.38 -52577)
(-52502.4 24399.9 -46783)
(-42552.8 35342.7 -36922.7)
(-119035 -2536.89 -32181.7)
(-51678 16502.6 -9395.08)
(182.932 34589.1 2254.28)
(-119268 1894.8 -28546.1)
(-86425.6 23838.2 -26669.6)
(-60677.8 33080.8 -24863.3)
(-161329 -15071.5 -20964.8)
(-126665 1022.9 354.282)
(-35348 22064.5 7756.91)
(-81836.5 -9808.14 9983.6)
(-67679.8 27038.5 9147.92)
(-37541 21017.8 6411.77)
(-114872 -25241.6 14241.4)
(-105921 -35244.4 16384)
(-100088 -36444.3 28519)
(-35159.6 -11779.9 25346)
(-24384.6 -5903.98 27709.3)
(-23109.6 271.163 -2796.17)
(11954.8 7143.36 10286.4)
(-29521.8 -11494.9 21845.6)
(-29161.2 -15473.4 8962.99)
(-2641.82 -16823.4 12649.6)
(31405.5 -20167.9 21179.3)
(67095.4 -102.942 13438.8)
(60688.8 -7263.38 5909.76)
(64606.6 -28679.6 15172.7)
(60928.9 -24447.2 14560.3)
(27731.9 -36854.9 4341.44)
(44988.5 -47055 1307.67)
(95729 -29688.3 4586.07)
(75271.6 -25092.8 537.956)
(64608.8 -26743 7341.48)
(100055 -24645.5 20530)
(35885 -42718.7 6987.22)
(24225.2 -47619.9 -11579.1)
(62000.8 -33589.4 -10455.8)
(38666.9 -47564.4 -25814.8)
(53945.9 -24639.5 -8214.14)
(20807.2 -8459.06 33461.1)
(25556.8 -9802.96 38532.4)
(26084 -5950.73 41931.2)
(18167 -11315.4 25164)
(2896.25 -18813.1 13100.9)
(50499.8 -2844.23 17772.2)
(31997.1 -6283.54 7259.14)
(-19503.5 -29104.6 3255.43)
(52805.3 7439.97 9916.64)
(-19604.8 -11129.7 -1678.47)
(-56970.3 -33758.8 -3720.62)
(37383.4 803.663 5586.29)
(-29094.5 -15404.8 -1773.47)
(-66509.2 -30714.3 -417.741)
(24771.8 4810.51 -13247.3)
(-24755.9 -9639.32 -33215.2)
(-120838 -28785.5 -33854.6)
(-49924.8 -12886.9 -32216)
(-66278.6 -19826.7 -33142.9)
(-127852 -21464.3 -22229.1)
(-64282.4 -13492.4 -16293.5)
(-80330.4 2031.62 -30364.2)
(-109649 -3777.36 -48311.5)
(-184150 -42097.3 -41929.9)
(-159490 -40459.4 -40305.3)
(-154853 -38915.2 -16169.2)
(-212377 -50205.7 -18358.5)
(-159743 -36740.4 -20323.9)
(-164375 -38489.3 -17363.6)
(-228105 -46038.2 -29629.1)
(-268326 -44870.3 -37264.4)
(-275329 -62421.5 -28619.7)
(-255705 -57480 -22092.4)
(-269010 -46768 -22637.1)
(-238081 -58887.8 -16900.2)
(-193287 -41808.7 -7233.81)
(-250680 -41687 -15080.1)
(-307549 -67559.6 -22398.4)
(-256500 -49154.6 -17654.3)
(-227104 -40347.8 -18092.4)
(-268444 -58635.4 -27506.8)
(-168026 -26606 -14338.5)
(-136597 -15780.5 8833.33)
(-198928 -36935.5 -7491.99)
(-180288 -18276.4 -3427.33)
(-171885 -27708.2 -29529.8)
(-117865 -27581.7 -51189)
(-142259 -22250.1 -51238.3)
(-111594 -25043.5 -45435.2)
(-68403.6 -7452.36 -15945.6)
(-62513 7519.06 -21313.4)
(-119816 -21161.9 -38760.4)
(-86436.4 -5833.88 -38124.6)
(-24105.4 17068.3 -35159.2)
(-117777 -18902.9 -41695.3)
(-66573.8 951.943 -24717.4)
)
;

boundaryField
{
    bottom
    {
        type            uniformFixedValue;
        value           uniform (0 0 0);
        uniformValue    constant (0 0 0);
    }
    left
    {
        type            uniformFixedValue;
        value           uniform (0 0 0);
        uniformValue    constant (0 0 0);
    }
    front
    {
        type            uniformFixedValue;
        value           uniform (0 0 0);
        uniformValue    constant (0 0 0);
    }
    right
    {
        type            uniformFixedValue;
        value           uniform (0 0 0);
        uniformValue    constant (0 0 0);
    }
    back
    {
        type            uniformFixedValue;
        value           uniform (0 0 0);
        uniformValue    constant (0 0 0);
    }
    top
    {
        type            uniformFixedValue;
        value           uniform (0 0 0);
        uniformValue    constant (0 0 0);
    }
}


// ************************************************************************* //
