/*--------------------------------*- C++ -*----------------------------------*\
| =========                 |                                                 |
| \\      /  F ield         | OpenFOAM: The Open Source CFD Toolbox           |
|  \\    /   O peration     | Version:  v2012                                 |
|   \\  /    A nd           | Website:  www.openfoam.com                      |
|    \\/     M anipulation  |                                                 |
\*---------------------------------------------------------------------------*/
FoamFile
{
    version     2.0;
    format      ascii;
    class       volScalarField;
    location    "1";
    object      sigmaEq;
}
// * * * * * * * * * * * * * * * * * * * * * * * * * * * * * * * * * * * * * //

dimensions      [1 -1 -2 0 0 0 0];


internalField   nonuniform List<scalar> 
512
(
2.73074e+16
3.54885e+16
1.28588e+16
1.99631e+16
2.28915e+16
2.35628e+16
2.39366e+16
1.36674e+16
3.89664e+16
5.9156e+16
4.42823e+16
2.67308e+16
4.28522e+16
6.37817e+16
7.70803e+16
4.75109e+16
4.09142e+16
6.84693e+16
5.14517e+16
3.55075e+16
2.91788e+16
5.99962e+16
7.7479e+16
4.41369e+16
3.63408e+16
7.71313e+16
8.55731e+16
8.92927e+16
8.52741e+16
6.57279e+16
7.08659e+16
4.20676e+16
1.07315e+17
2.04479e+17
2.44617e+17
2.42717e+17
2.07619e+17
1.45093e+17
9.80936e+16
5.68935e+16
1.46644e+17
2.5726e+17
2.9869e+17
2.88316e+17
2.39771e+17
1.62948e+17
9.38036e+16
4.35027e+16
9.67112e+16
1.8845e+17
2.28369e+17
2.3341e+17
2.12067e+17
1.71302e+17
1.25943e+17
6.959e+16
2.6174e+16
4.92525e+16
7.02969e+16
9.76832e+16
1.18733e+17
1.2676e+17
1.15216e+17
6.14572e+16
3.65143e+16
5.84385e+16
7.93553e+16
9.14118e+16
8.01313e+16
5.44786e+16
3.18885e+16
1.89555e+16
2.65028e+16
4.33723e+16
7.07924e+16
1.0613e+17
1.40466e+17
1.68116e+17
1.75817e+17
8.77562e+16
8.81964e+16
1.48568e+17
1.20971e+17
1.05422e+17
1.44261e+17
2.06583e+17
2.28198e+17
1.33266e+17
1.10999e+17
1.31044e+17
8.08195e+16
4.37807e+16
4.62501e+16
1.00389e+17
1.31909e+17
8.10263e+16
9.79312e+16
1.65997e+17
2.15575e+17
2.44682e+17
2.11638e+17
1.62656e+17
1.62528e+17
9.82182e+16
1.58851e+17
3.53444e+17
3.90641e+17
3.58315e+17
2.63475e+17
1.53146e+17
1.14482e+17
6.49106e+16
7.99349e+16
1.54684e+17
1.31396e+17
8.81652e+16
7.44183e+16
1.06302e+17
9.58215e+16
6.09466e+16
3.39831e+16
5.54674e+16
4.13845e+16
3.40218e+16
4.79041e+16
6.55812e+16
7.23674e+16
4.15246e+16
1.80345e+16
4.7502e+16
7.51891e+16
7.83523e+16
6.9079e+16
5.42338e+16
3.89275e+16
1.92752e+16
1.93143e+16
7.26235e+16
6.62295e+16
6.62129e+16
6.46033e+16
1.16498e+17
1.53735e+17
8.15944e+16
1.03471e+17
1.83715e+17
1.71749e+17
1.92487e+17
2.92136e+17
3.59867e+17
3.5111e+17
1.62314e+17
1.38321e+17
2.40917e+17
1.82458e+17
1.84551e+17
2.17439e+17
2.11231e+17
1.28623e+17
5.01654e+16
3.73962e+16
8.29879e+16
1.35022e+17
1.19641e+17
9.10217e+16
8.90647e+16
1.71384e+17
1.11261e+17
1.49836e+17
3.03774e+17
2.88838e+17
2.06635e+17
1.07154e+17
1.11079e+17
1.35713e+17
8.82852e+16
9.60945e+16
1.5163e+17
9.20407e+16
3.62968e+16
9.95752e+16
1.31428e+17
1.2197e+17
7.89438e+16
5.4758e+16
1.15157e+17
1.58821e+17
1.86102e+17
1.92123e+17
1.67978e+17
1.22453e+17
5.59179e+16
6.90977e+16
1.49445e+17
1.93554e+17
2.07458e+17
1.93347e+17
1.54169e+17
9.60842e+16
3.92476e+16
9.66006e+16
1.6315e+17
1.85597e+17
1.64805e+17
1.5816e+17
1.58182e+17
1.54113e+17
8.94433e+16
6.93658e+16
3.04987e+16
3.67702e+16
8.41404e+16
1.36455e+17
1.78088e+17
1.94002e+17
1.27212e+17
8.70608e+16
7.41092e+16
4.56752e+16
5.45721e+16
8.14095e+16
1.12853e+17
1.33625e+17
7.92426e+16
7.66455e+16
1.57729e+17
1.54894e+17
1.2012e+17
1.05636e+17
1.79706e+17
2.2186e+17
1.19989e+17
1.32364e+17
2.8205e+17
2.80351e+17
2.2569e+17
1.86216e+17
2.05361e+17
2.1628e+17
1.37507e+17
1.19803e+17
1.98336e+17
1.74856e+17
1.12018e+17
7.66583e+16
9.16681e+16
8.27243e+16
8.29728e+16
7.81196e+16
1.27586e+17
1.42833e+17
1.4625e+17
1.48062e+17
1.33945e+17
7.99583e+16
4.10431e+16
5.42186e+16
1.13644e+17
1.36746e+17
1.43247e+17
1.39438e+17
1.18552e+17
8.50264e+16
3.66303e+16
7.72066e+16
1.20885e+17
1.24434e+17
1.18471e+17
8.66615e+16
5.93695e+16
5.93423e+16
3.84909e+16
6.79898e+16
5.02048e+16
7.89885e+16
1.27245e+17
1.71141e+17
1.92468e+17
1.7776e+17
1.06222e+17
1.07343e+17
1.36205e+17
1.7633e+17
2.23574e+17
2.60235e+17
2.69702e+17
2.33398e+17
1.62082e+17
1.71778e+17
1.88848e+17
1.78178e+17
1.767e+17
1.70094e+17
1.49033e+17
1.46572e+17
2.17142e+17
2.07156e+17
1.07727e+17
1.21935e+17
1.51125e+17
1.71974e+17
1.91335e+17
2.15774e+17
2.1359e+17
1.98798e+17
2.30867e+17
2.73417e+17
2.51297e+17
2.65772e+17
2.65141e+17
2.24489e+17
1.34579e+17
1.25081e+17
1.9677e+17
1.99429e+17
1.88558e+17
1.73066e+17
1.69409e+17
1.38529e+17
5.9084e+16
4.86381e+16
1.01897e+17
1.06339e+17
9.45871e+16
1.15257e+17
1.11552e+17
6.62432e+16
2.32671e+16
8.72414e+16
1.33808e+17
1.17136e+17
1.63085e+17
1.57613e+17
1.01998e+17
1.06504e+17
7.05867e+16
8.79073e+16
5.91162e+16
1.80129e+17
2.04967e+17
2.03912e+17
2.503e+17
1.86893e+17
1.16737e+17
1.20574e+17
2.01208e+17
2.58442e+17
2.47794e+17
2.92876e+17
3.30561e+17
2.98827e+17
1.53961e+17
1.64852e+17
3.26499e+17
3.95007e+17
3.97354e+17
4.2506e+17
4.67719e+17
4.24014e+17
2.04207e+17
2.01405e+17
3.99713e+17
4.34005e+17
3.95076e+17
4.09662e+17
4.18961e+17
3.3808e+17
1.62694e+17
1.56343e+17
2.68039e+17
2.69461e+17
2.4814e+17
2.52618e+17
2.5167e+17
1.96302e+17
9.03576e+16
8.30813e+16
1.17708e+17
1.20446e+17
1.16361e+17
1.03711e+17
1.05712e+17
8.63039e+16
3.87472e+16
3.68569e+16
5.47331e+16
6.97461e+16
8.43852e+16
8.25645e+16
7.58208e+16
6.74369e+16
4.37497e+16
6.67077e+16
1.08232e+17
1.09762e+17
1.12869e+17
1.30403e+17
9.25886e+16
8.63053e+16
6.88843e+16
7.2211e+16
5.75531e+16
9.27776e+16
7.68144e+16
8.30211e+16
9.63261e+16
1.14473e+17
1.04204e+17
9.8215e+16
1.19274e+17
1.72785e+17
1.75845e+17
1.72766e+17
2.16546e+17
2.5028e+17
1.55557e+17
1.33808e+17
2.45923e+17
2.98076e+17
2.97151e+17
2.81131e+17
3.12245e+17
3.26233e+17
1.68808e+17
1.35074e+17
2.92299e+17
3.36363e+17
3.02606e+17
2.70003e+17
2.88873e+17
2.64956e+17
1.21784e+17
9.11187e+16
2.08538e+17
2.33257e+17
2.13729e+17
1.90312e+17
1.84097e+17
2.00897e+17
9.72713e+16
3.65549e+16
6.84383e+16
9.01763e+16
1.02819e+17
6.7459e+16
7.00131e+16
9.05032e+16
3.43969e+16
1.76752e+16
3.03078e+16
2.28952e+16
4.03809e+16
3.28658e+16
1.82058e+16
4.71905e+16
3.6947e+16
2.39396e+16
1.76991e+16
9.30551e+16
7.4085e+16
4.72334e+16
9.60755e+16
8.05855e+16
4.68494e+16
4.00672e+16
8.71242e+16
1.47708e+17
1.60954e+17
1.44417e+17
1.74227e+17
1.75082e+17
9.52418e+16
1.01329e+17
1.87767e+17
2.36233e+17
2.55047e+17
2.48847e+17
2.49512e+17
2.4708e+17
1.60249e+17
1.37414e+17
2.28823e+17
2.93075e+17
3.07292e+17
2.73593e+17
2.80087e+17
2.59634e+17
1.54442e+17
1.21239e+17
2.11765e+17
2.53042e+17
2.48047e+17
2.19243e+17
2.2158e+17
1.96307e+17
1.04983e+17
8.50726e+16
1.36087e+17
1.60603e+17
1.5873e+17
1.2025e+17
1.21801e+17
1.24925e+17
7.26637e+16
3.33265e+16
5.5469e+16
7.92986e+16
8.95926e+16
5.96406e+16
6.58648e+16
8.01464e+16
3.57189e+16
)
;

boundaryField
{
    bottom
    {
        type            calculated;
        value           nonuniform List<scalar> 
64
(
2.73074e+16
3.89664e+16
4.09142e+16
3.63408e+16
1.07315e+17
1.46644e+17
9.67112e+16
2.6174e+16
3.65143e+16
2.65028e+16
8.81964e+16
1.10999e+17
9.79312e+16
1.58851e+17
7.99349e+16
3.39831e+16
1.80345e+16
1.93143e+16
1.03471e+17
1.38321e+17
3.73962e+16
1.49836e+17
9.60945e+16
5.4758e+16
6.90977e+16
9.66006e+16
6.93658e+16
8.70608e+16
7.66455e+16
1.32364e+17
1.19803e+17
7.81196e+16
5.42186e+16
7.72066e+16
6.79898e+16
1.07343e+17
1.71778e+17
2.07156e+17
1.98798e+17
1.25081e+17
4.86381e+16
8.72414e+16
8.79073e+16
1.20574e+17
1.64852e+17
2.01405e+17
1.56343e+17
8.30813e+16
3.68569e+16
6.67077e+16
7.2211e+16
9.8215e+16
1.33808e+17
1.35074e+17
9.11187e+16
3.65549e+16
1.76752e+16
2.39396e+16
4.00672e+16
1.01329e+17
1.37414e+17
1.21239e+17
8.50726e+16
3.33265e+16
)
;
    }
    left
    {
        type            calculated;
        value           nonuniform List<scalar> 
64
(
2.73074e+16
3.54885e+16
1.28588e+16
1.99631e+16
2.28915e+16
2.35628e+16
2.39366e+16
1.36674e+16
3.65143e+16
5.84385e+16
7.93553e+16
9.14118e+16
8.01313e+16
5.44786e+16
3.18885e+16
1.89555e+16
1.80345e+16
4.7502e+16
7.51891e+16
7.83523e+16
6.9079e+16
5.42338e+16
3.89275e+16
1.92752e+16
6.90977e+16
1.49445e+17
1.93554e+17
2.07458e+17
1.93347e+17
1.54169e+17
9.60842e+16
3.92476e+16
5.42186e+16
1.13644e+17
1.36746e+17
1.43247e+17
1.39438e+17
1.18552e+17
8.50264e+16
3.66303e+16
4.86381e+16
1.01897e+17
1.06339e+17
9.45871e+16
1.15257e+17
1.11552e+17
6.62432e+16
2.32671e+16
3.68569e+16
5.47331e+16
6.97461e+16
8.43852e+16
8.25645e+16
7.58208e+16
6.74369e+16
4.37497e+16
1.76752e+16
3.03078e+16
2.28952e+16
4.03809e+16
3.28658e+16
1.82058e+16
4.71905e+16
3.6947e+16
)
;
    }
    front
    {
        type            calculated;
        value           nonuniform List<scalar> 
64
(
1.76752e+16
3.03078e+16
2.28952e+16
4.03809e+16
3.28658e+16
1.82058e+16
4.71905e+16
3.6947e+16
2.39396e+16
1.76991e+16
9.30551e+16
7.4085e+16
4.72334e+16
9.60755e+16
8.05855e+16
4.68494e+16
4.00672e+16
8.71242e+16
1.47708e+17
1.60954e+17
1.44417e+17
1.74227e+17
1.75082e+17
9.52418e+16
1.01329e+17
1.87767e+17
2.36233e+17
2.55047e+17
2.48847e+17
2.49512e+17
2.4708e+17
1.60249e+17
1.37414e+17
2.28823e+17
2.93075e+17
3.07292e+17
2.73593e+17
2.80087e+17
2.59634e+17
1.54442e+17
1.21239e+17
2.11765e+17
2.53042e+17
2.48047e+17
2.19243e+17
2.2158e+17
1.96307e+17
1.04983e+17
8.50726e+16
1.36087e+17
1.60603e+17
1.5873e+17
1.2025e+17
1.21801e+17
1.24925e+17
7.26637e+16
3.33265e+16
5.5469e+16
7.92986e+16
8.95926e+16
5.96406e+16
6.58648e+16
8.01464e+16
3.57189e+16
)
;
    }
    right
    {
        type            calculated;
        value           nonuniform List<scalar> 
64
(
2.6174e+16
4.92525e+16
7.02969e+16
9.76832e+16
1.18733e+17
1.2676e+17
1.15216e+17
6.14572e+16
3.39831e+16
5.54674e+16
4.13845e+16
3.40218e+16
4.79041e+16
6.55812e+16
7.23674e+16
4.15246e+16
5.4758e+16
1.15157e+17
1.58821e+17
1.86102e+17
1.92123e+17
1.67978e+17
1.22453e+17
5.59179e+16
7.81196e+16
1.27586e+17
1.42833e+17
1.4625e+17
1.48062e+17
1.33945e+17
7.99583e+16
4.10431e+16
1.25081e+17
1.9677e+17
1.99429e+17
1.88558e+17
1.73066e+17
1.69409e+17
1.38529e+17
5.9084e+16
8.30813e+16
1.17708e+17
1.20446e+17
1.16361e+17
1.03711e+17
1.05712e+17
8.63039e+16
3.87472e+16
3.65549e+16
6.84383e+16
9.01763e+16
1.02819e+17
6.7459e+16
7.00131e+16
9.05032e+16
3.43969e+16
3.33265e+16
5.5469e+16
7.92986e+16
8.95926e+16
5.96406e+16
6.58648e+16
8.01464e+16
3.57189e+16
)
;
    }
    back
    {
        type            calculated;
        value           nonuniform List<scalar> 
64
(
2.73074e+16
3.54885e+16
1.28588e+16
1.99631e+16
2.28915e+16
2.35628e+16
2.39366e+16
1.36674e+16
3.89664e+16
5.9156e+16
4.42823e+16
2.67308e+16
4.28522e+16
6.37817e+16
7.70803e+16
4.75109e+16
4.09142e+16
6.84693e+16
5.14517e+16
3.55075e+16
2.91788e+16
5.99962e+16
7.7479e+16
4.41369e+16
3.63408e+16
7.71313e+16
8.55731e+16
8.92927e+16
8.52741e+16
6.57279e+16
7.08659e+16
4.20676e+16
1.07315e+17
2.04479e+17
2.44617e+17
2.42717e+17
2.07619e+17
1.45093e+17
9.80936e+16
5.68935e+16
1.46644e+17
2.5726e+17
2.9869e+17
2.88316e+17
2.39771e+17
1.62948e+17
9.38036e+16
4.35027e+16
9.67112e+16
1.8845e+17
2.28369e+17
2.3341e+17
2.12067e+17
1.71302e+17
1.25943e+17
6.959e+16
2.6174e+16
4.92525e+16
7.02969e+16
9.76832e+16
1.18733e+17
1.2676e+17
1.15216e+17
6.14572e+16
)
;
    }
    top
    {
        type            calculated;
        value           nonuniform List<scalar> 
64
(
1.36674e+16
4.75109e+16
4.41369e+16
4.20676e+16
5.68935e+16
4.35027e+16
6.959e+16
6.14572e+16
1.89555e+16
8.77562e+16
1.33266e+17
8.10263e+16
9.82182e+16
6.49106e+16
6.09466e+16
4.15246e+16
1.92752e+16
8.15944e+16
1.62314e+17
5.01654e+16
1.11261e+17
8.82852e+16
7.89438e+16
5.59179e+16
3.92476e+16
8.94433e+16
1.27212e+17
7.92426e+16
1.19989e+17
1.37507e+17
8.29728e+16
4.10431e+16
3.66303e+16
3.84909e+16
1.06222e+17
1.62082e+17
2.17142e+17
2.1359e+17
1.34579e+17
5.9084e+16
2.32671e+16
7.05867e+16
1.16737e+17
1.53961e+17
2.04207e+17
1.62694e+17
9.03576e+16
3.87472e+16
4.37497e+16
6.88843e+16
1.04204e+17
1.55557e+17
1.68808e+17
1.21784e+17
9.72713e+16
3.43969e+16
3.6947e+16
4.68494e+16
9.52418e+16
1.60249e+17
1.54442e+17
1.04983e+17
7.26637e+16
3.57189e+16
)
;
    }
}


// ************************************************************************* //
