/*--------------------------------*- C++ -*----------------------------------*\
| =========                 |                                                 |
| \\      /  F ield         | OpenFOAM: The Open Source CFD Toolbox           |
|  \\    /   O peration     | Version:  v2012                                 |
|   \\  /    A nd           | Website:  www.openfoam.com                      |
|    \\/     M anipulation  |                                                 |
\*---------------------------------------------------------------------------*/
FoamFile
{
    version     2.0;
    format      ascii;
    class       volScalarField;
    location    "1";
    object      sigmaHyd;
}
// * * * * * * * * * * * * * * * * * * * * * * * * * * * * * * * * * * * * * //

dimensions      [1 -1 -2 0 0 0 0];


internalField   nonuniform List<scalar> 
512
(
-1.23438e+16
-2.38821e+16
-1.5531e+16
-3.23364e+15
-7.83043e+15
-1.07983e+16
-1.08788e+16
-4.9574e+15
1.34359e+16
7.77391e+15
-7.68323e+15
-6.82727e+15
-6.93428e+15
-7.48613e+15
-4.67199e+15
-4.32451e+15
4.45885e+15
-6.20482e+14
-6.44918e+15
-1.31865e+16
-2.57557e+16
-5.65265e+16
-6.74116e+16
-4.42628e+16
-3.23696e+16
-6.63444e+16
-5.57534e+16
-3.17423e+16
-1.24951e+16
-1.04946e+16
-2.54911e+16
-2.38861e+16
-2.59052e+16
-4.95951e+16
-5.18256e+16
-4.67602e+16
-3.54585e+16
-1.49479e+16
2.8682e+15
1.80972e+16
8.45437e+15
5.74383e+16
7.55373e+16
7.84597e+16
6.69646e+16
4.2595e+16
2.86446e+16
1.65358e+16
1.16273e+16
7.28574e+16
1.05559e+17
1.19215e+17
1.12078e+17
8.47114e+16
4.48637e+16
-3.38027e+15
-2.39115e+15
-1.74138e+16
-6.00053e+16
-9.80521e+16
-1.22658e+17
-1.29968e+17
-1.15392e+17
-5.84066e+16
5.34337e+15
5.94795e+15
2.60962e+16
5.31263e+16
6.03554e+16
5.86116e+16
4.83391e+16
2.26515e+16
1.45448e+16
1.05415e+16
-8.37943e+15
-4.2275e+16
-5.25818e+16
-4.80999e+16
-3.42531e+16
-9.07968e+15
-1.51176e+16
-3.77794e+13
2.06419e+16
1.56972e+16
3.72157e+16
3.86475e+16
3.6284e+16
1.70044e+16
-1.04475e+16
-7.42953e+15
-3.03297e+16
-3.57057e+16
-7.28417e+15
4.10463e+16
4.48098e+16
1.38941e+16
-5.87124e+15
-1.95442e+16
-5.54487e+16
-8.20096e+16
-9.24114e+16
-6.377e+16
-6.5957e+16
-3.72894e+16
-4.29285e+16
-8.19463e+16
-8.2149e+16
-6.73145e+16
-4.10859e+16
-2.30904e+16
-2.32737e+16
-3.4089e+16
-2.37707e+16
-2.82014e+16
2.7972e+15
3.36981e+16
5.93334e+16
7.29078e+16
6.6639e+16
4.72055e+15
1.78496e+16
3.72517e+16
3.59345e+16
2.53702e+16
1.04118e+16
-8.26112e+15
-3.00896e+16
-2.23727e+16
1.52727e+16
9.71711e+15
1.0236e+16
3.4962e+16
5.12267e+16
5.7258e+16
5.45921e+16
2.74957e+16
2.40535e+16
3.83174e+16
6.88767e+16
6.38021e+16
4.16504e+16
1.08329e+16
-1.86244e+16
-1.70851e+16
-3.27178e+16
-6.80065e+16
-4.34858e+16
-4.25102e+16
-4.65658e+16
-5.90688e+16
-6.16701e+16
-3.33625e+16
-3.45295e+16
-5.46395e+16
-5.62897e+16
-5.93527e+16
-8.6684e+16
-7.42873e+16
-4.67643e+16
-1.74808e+16
-1.33735e+16
7.50784e+15
2.72934e+16
3.4856e+16
8.42171e+15
1.19918e+16
2.00308e+16
7.77444e+15
1.41169e+16
3.78174e+16
3.16212e+16
1.71192e+16
1.30951e+16
1.75978e+16
5.41958e+16
1.83763e+16
2.3952e+16
3.29309e+16
6.80845e+15
-2.49616e+16
-5.30672e+16
-6.62956e+16
-3.92618e+16
-2.90895e+16
-2.64727e+16
-6.13988e+16
-6.85492e+16
-6.6986e+16
-5.51044e+16
-3.27901e+16
-2.92689e+16
-2.10132e+16
3.80261e+16
4.65833e+16
2.93192e+16
1.72819e+16
6.42162e+15
-5.71356e+15
-1.43478e+16
1.13667e+14
1.52592e+16
-2.76099e+16
-1.22215e+16
1.52785e+16
4.46493e+16
6.78456e+16
8.13964e+16
5.22684e+16
4.43179e+16
3.03817e+16
3.78634e+15
6.57117e+15
2.53294e+16
3.9827e+16
4.49654e+16
1.98076e+16
2.36397e+16
4.13202e+16
1.52883e+16
1.60723e+16
-5.88649e+15
-3.16056e+16
-5.52847e+16
-4.04378e+16
-4.41515e+16
-7.87478e+16
-7.45588e+16
-4.05579e+16
-1.8139e+16
-2.54702e+16
-4.42883e+16
-3.01277e+16
-4.29594e+16
-7.17318e+16
-8.13195e+16
-8.55149e+16
-6.73158e+16
-7.56456e+16
-5.06083e+16
-2.38177e+16
-1.99466e+16
-8.12344e+15
-8.29775e+14
1.50358e+15
-1.23381e+16
-4.65596e+16
-5.74989e+16
-5.00433e+16
-5.08679e+16
-9.72434e+16
-1.13482e+17
-1.18708e+17
-1.12438e+17
-8.39855e+16
-5.49135e+16
-3.28893e+16
6.49847e+16
1.19075e+17
1.54784e+17
1.73717e+17
1.73304e+17
1.45556e+17
8.69995e+16
4.60259e+16
7.20949e+16
9.44544e+16
1.01549e+17
9.88494e+16
8.42962e+16
6.11294e+16
4.21605e+16
4.42774e+16
3.00504e+16
5.78453e+16
4.88957e+16
2.14323e+16
-1.5029e+15
-1.53975e+16
-2.70861e+16
-9.59467e+15
-1.38135e+16
-1.44846e+16
-2.72625e+16
-4.38447e+16
-3.22958e+16
-1.7545e+16
-1.16203e+16
-6.27822e+15
2.96296e+16
2.21056e+16
3.23283e+15
-4.34031e+15
6.1068e+15
1.56007e+16
1.49297e+16
-7.21734e+15
2.68087e+16
2.63553e+16
-9.74898e+15
-5.39438e+16
-5.56309e+16
-9.61568e+16
-1.15502e+17
-6.85674e+16
-4.23929e+16
-1.09848e+17
-1.11244e+17
-9.30345e+16
-1.12681e+17
-1.09014e+17
-9.65111e+16
-7.45877e+16
-7.38645e+16
-1.21937e+17
-1.00284e+17
-1.02283e+17
-1.01761e+17
-8.52811e+16
-6.9428e+16
-4.22199e+16
4.54815e+15
-2.59234e+15
-1.26371e+15
4.57961e+15
4.87019e+16
6.62717e+16
3.96522e+16
2.44638e+16
7.32459e+16
8.18987e+16
6.40351e+16
1.07041e+17
9.64522e+16
4.74381e+16
6.74879e+16
5.97809e+16
8.16354e+15
2.82591e+16
9.13991e+16
9.55358e+16
6.78527e+16
1.06756e+17
7.20156e+16
2.32402e+16
1.58205e+16
3.82291e+16
2.54285e+16
9.76685e+15
2.76342e+16
5.57912e+16
5.09746e+16
3.25339e+16
5.06983e+16
8.62184e+16
9.39258e+16
1.00246e+17
1.01259e+17
9.74151e+16
9.90256e+16
4.87927e+16
5.31025e+16
9.44342e+16
9.74531e+16
7.80032e+16
5.90111e+16
5.33952e+16
1.97029e+16
-2.82348e+15
1.13347e+16
1.94236e+16
1.15509e+15
-1.75296e+16
-3.23636e+16
-3.77141e+16
-5.1806e+16
-3.37306e+16
-4.90166e+16
-7.60267e+16
-6.19849e+16
-4.97341e+16
-6.30096e+16
-5.13854e+16
-3.04668e+16
-2.71359e+16
8.44985e+15
1.27439e+16
2.2807e+16
1.97271e+16
3.37886e+16
3.94768e+16
1.22943e+16
9.53136e+14
2.21795e+16
2.65351e+16
2.21919e+16
1.44905e+16
3.47191e+16
2.23437e+16
-1.12391e+15
2.11052e+15
3.14776e+16
1.59778e+16
3.80767e+14
2.68691e+16
1.10465e+16
9.36831e+15
-8.96343e+14
1.52132e+15
5.69429e+15
-4.48114e+15
-2.61857e+16
-2.13397e+16
-3.30968e+16
-3.91006e+16
-5.87053e+16
-3.29464e+16
-3.55694e+16
-7.55639e+16
-7.33251e+16
-8.43242e+16
-8.39641e+16
-7.7489e+16
-8.86944e+16
-5.19305e+16
-3.30145e+16
-6.49901e+16
-7.19918e+16
-4.80801e+16
-5.4342e+16
-5.4916e+16
-4.74345e+16
-3.48244e+16
-1.5371e+16
-2.1958e+16
-2.49329e+16
-1.15456e+16
-5.70985e+15
-8.50485e+14
-2.43891e+16
-2.91158e+16
-2.13684e+16
-2.19758e+16
-3.81763e+16
-5.18665e+16
-1.3006e+16
-2.22663e+16
-3.90474e+16
-1.49332e+16
1.51175e+16
-6.09947e+15
-5.97189e+15
4.11686e+16
1.44117e+16
4.55734e+15
4.67891e+16
3.22686e+16
-3.32979e+15
2.4362e+16
7.77145e+16
6.0384e+16
5.13018e+16
8.49191e+16
5.67716e+16
8.42289e+15
4.72905e+16
7.81617e+16
7.55876e+16
9.79477e+16
9.56727e+16
9.82625e+16
9.93065e+16
3.63588e+16
5.60766e+16
1.06329e+17
1.13556e+17
1.26531e+17
1.28435e+17
1.17863e+17
1.07934e+17
4.55806e+16
4.46026e+16
7.98741e+16
9.23019e+16
7.70038e+16
5.19617e+16
6.13409e+16
3.37901e+16
-5.26676e+15
-2.33432e+14
1.73138e+16
-3.76673e+15
-9.27297e+15
-8.98845e+15
-2.57152e+16
-2.30179e+16
-2.15187e+16
-1.26161e+16
-4.34219e+16
-3.82166e+16
-1.58245e+16
-3.88196e+16
-1.99964e+16
-9.01268e+15
-3.03604e+16
-1.50019e+16
-4.18718e+16
-5.0413e+16
-5.9964e+16
-4.15806e+16
-4.4504e+16
-6.1126e+16
-3.07477e+16
)
;

boundaryField
{
    bottom
    {
        type            zeroGradient;
    }
    left
    {
        type            zeroGradient;
    }
    front
    {
        type            zeroGradient;
    }
    right
    {
        type            zeroGradient;
    }
    back
    {
        type            zeroGradient;
    }
    top
    {
        type            zeroGradient;
    }
}


// ************************************************************************* //
