/*--------------------------------*- C++ -*----------------------------------*\
| =========                 |                                                 |
| \\      /  F ield         | OpenFOAM: The Open Source CFD Toolbox           |
|  \\    /   O peration     | Version:  v2012                                 |
|   \\  /    A nd           | Website:  www.openfoam.com                      |
|    \\/     M anipulation  |                                                 |
\*---------------------------------------------------------------------------*/
FoamFile
{
    version     2.0;
    format      ascii;
    class       volSymmTensorField;
    location    "1";
    object      sigma;
}
// * * * * * * * * * * * * * * * * * * * * * * * * * * * * * * * * * * * * * //

dimensions      [1 -1 -2 0 0 0 0];


internalField   nonuniform List<symmTensor> 
512
(
(2.58084e+16 -6.69294e+15 7.63553e+15 4.66896e+15 2.93417e+15 6.55414e+15)
(4.19495e+16 -1.12816e+16 -6.8054e+15 1.36812e+16 -1.99863e+14 1.60157e+16)
(1.97865e+16 -3.44181e+15 -2.4192e+15 8.60162e+15 8.82794e+14 1.8205e+16)
(5.86822e+15 5.73592e+13 7.42644e+15 -1.50559e+15 -7.79558e+15 5.33829e+15)
(9.82914e+15 -3.94808e+15 7.16436e+15 8.90916e+15 -1.00221e+16 4.753e+15)
(8.08229e+15 -6.30908e+15 4.6929e+15 1.94874e+16 -7.99769e+15 4.82531e+15)
(4.17369e+15 -6.56077e+15 2.55871e+15 2.40108e+16 -3.46991e+15 4.45192e+15)
(1.12749e+15 -3.11032e+15 1.97457e+15 1.19573e+16 3.44031e+15 1.78746e+15)
(-2.18272e+16 -1.78102e+16 1.01195e+16 -3.43475e+15 -6.15123e+13 -1.50458e+16)
(-2.50531e+16 -2.67116e+16 -9.69386e+15 1.11759e+16 5.36339e+15 -9.44455e+15)
(-6.2547e+15 -1.18044e+16 -1.52264e+16 1.8132e+16 1.11644e+16 1.11724e+16)
(-2.76092e+15 -7.04331e+15 -1.09061e+16 1.15531e+16 -8.19455e+14 1.16897e+16)
(-7.50925e+15 -4.33474e+15 -1.6806e+16 2.39401e+16 -7.6606e+15 4.37202e+15)
(-2.09488e+16 6.47675e+15 -1.75192e+16 4.1171e+16 -4.66707e+15 2.23619e+15)
(-3.33956e+16 1.66843e+16 -1.0416e+16 4.61702e+16 1.44745e+15 1.24136e+15)
(-1.67551e+16 1.00131e+16 9.35523e+15 2.43763e+16 1.18704e+16 5.3524e+15)
(-2.42179e+16 5.18923e+15 -3.95106e+15 1.76787e+16 -8.50756e+15 -6.83737e+15)
(-3.43134e+16 1.19109e+16 5.85984e+15 3.86825e+16 6.85822e+15 -2.50766e+15)
(-1.28267e+16 1.37542e+16 9.14552e+15 2.92539e+16 1.25527e+16 2.9203e+15)
(1.00754e+16 9.79351e+15 1.45365e+16 1.74533e+16 9.92107e+15 1.20308e+16)
(3.80015e+16 7.90409e+15 -1.08598e+15 2.89584e+16 4.55089e+15 1.03073e+16)
(7.3068e+16 2.20189e+16 -1.32856e+16 6.01648e+16 1.38373e+16 3.63468e+16)
(8.64136e+16 3.72546e+16 -7.26174e+15 6.53048e+16 1.53258e+16 5.05166e+16)
(5.19979e+16 2.03788e+16 9.4824e+15 3.83528e+16 9.75172e+15 4.24375e+16)
(5.14654e+16 1.2812e+16 -1.53154e+15 2.2561e+16 -4.1197e+14 2.30823e+16)
(1.10873e+17 1.92782e+16 9.32397e+15 3.81134e+16 1.32956e+15 5.00464e+16)
(1.09282e+17 5.38276e+15 9.806e+15 1.64631e+16 -3.14755e+15 4.15153e+16)
(8.27817e+16 -1.37869e+16 1.46845e+16 -9.92688e+15 -6.11891e+15 2.2372e+16)
(5.54282e+16 -2.72577e+16 1.27798e+16 -1.7197e+16 -8.21519e+15 -7.45863e+14)
(4.48718e+16 -2.2278e+16 1.77435e+15 -8.49441e+15 7.14232e+15 -4.8935e+15)
(5.98574e+16 -1.79062e+16 9.43692e+15 -3.90419e+15 1.51455e+16 2.05201e+16)
(4.19077e+16 -1.01824e+16 -9.48621e+15 2.63262e+15 -1.66127e+15 2.71178e+16)
(6.23427e+16 -3.20342e+16 3.76499e+16 -9.4704e+15 1.02479e+16 2.48433e+16)
(1.35005e+17 -8.11094e+16 2.29915e+16 -2.93246e+16 -6.86861e+15 4.31046e+16)
(1.49507e+17 -1.0382e+17 1.22108e+16 -3.57351e+16 -1.90388e+16 4.17044e+16)
(1.37312e+17 -1.08321e+17 4.73278e+15 -3.10249e+16 -2.59751e+16 3.39938e+16)
(1.03657e+17 -9.8478e+16 -3.40357e+15 -1.83454e+16 -2.79738e+16 2.10634e+16)
(5.57607e+16 -7.26927e+16 -1.14451e+16 -7.33818e+15 -1.86888e+16 -3.579e+15)
(7.02503e+15 -5.50478e+16 8.73806e+15 -1.22938e+16 -2.71473e+15 -3.33581e+15)
(-1.73942e+16 -2.7257e+16 -1.72677e+16 -2.00059e+16 -5.91987e+15 -1.68915e+16)
(-1.37015e+16 -6.04855e+16 5.61247e+16 -2.42426e+16 -2.22033e+13 1.25809e+16)
(-6.20896e+16 -1.43037e+17 2.3924e+16 -7.85952e+16 -2.14758e+16 -3.16301e+16)
(-8.5514e+16 -1.68626e+17 4.50914e+15 -9.00918e+16 -2.87556e+16 -5.10061e+16)
(-9.40346e+16 -1.62522e+17 -1.16434e+16 -8.27088e+16 -2.88599e+16 -5.86356e+16)
(-8.79833e+16 -1.32608e+17 -2.53271e+16 -5.89719e+16 -2.44798e+16 -5.39386e+16)
(-6.60523e+16 -8.1823e+16 -3.74301e+16 -2.18796e+16 -1.61616e+16 -3.98531e+16)
(-5.87565e+16 -3.68453e+16 -2.75944e+16 -2.32252e+15 -2.65344e+15 -2.48546e+16)
(-3.44596e+16 -1.11828e+16 -1.51669e+16 -3.12602e+15 3.87398e+15 -1.20217e+16)
(-4.43008e+16 -3.74198e+16 2.71914e+16 8.86982e+14 -1.27591e+16 8.53192e+15)
(-1.4977e+17 -8.12758e+16 -7.0328e+15 -2.07985e+16 -2.36836e+16 -4.80035e+16)
(-2.15215e+17 -8.292e+16 -1.85446e+16 -2.39131e+16 -2.06619e+16 -7.75477e+16)
(-2.44755e+17 -6.68913e+16 -2.31308e+16 -2.20623e+16 -1.21759e+16 -9.08286e+16)
(-2.35814e+17 -4.03672e+16 -2.34304e+16 -1.37853e+16 -1.62671e+15 -8.66341e+16)
(-1.8835e+17 -7.35937e+15 -2.10793e+16 1.01022e+15 8.83057e+15 -6.67948e+16)
(-1.16311e+17 2.10388e+16 -9.48235e+15 1.61845e+16 1.68763e+16 -3.44645e+16)
(-2.82651e+16 1.58583e+16 1.79162e+16 2.17245e+16 1.68627e+16 1.66813e+16)
(-1.13152e+16 -1.08937e+15 4.29234e+15 1.24473e+16 -7.58893e+15 6.04137e+15)
(-2.90395e+15 8.25591e+15 -9.658e+15 4.35272e+16 -9.11107e+15 1.16182e+16)
(5.24164e+16 2.90919e+16 -9.97755e+15 8.88515e+16 -5.52641e+15 3.87479e+16)
(1.06986e+17 4.71121e+16 -5.98551e+15 1.23003e+17 -2.27312e+14 6.41678e+16)
(1.46606e+17 5.82688e+16 -3.86235e+14 1.39766e+17 5.2838e+15 8.16023e+16)
(1.64817e+17 6.1007e+16 4.92579e+15 1.37153e+17 9.66771e+15 8.79341e+16)
(1.53088e+17 5.31795e+16 1.06305e+16 1.13045e+17 1.20779e+16 8.00436e+16)
(7.42456e+16 2.30759e+16 2.07861e+16 5.27768e+16 1.00518e+16 4.81973e+16)
(-3.7864e+14 1.81106e+16 -3.83463e+15 -9.62348e+14 6.01166e+15 -1.46891e+16)
(-3.5154e+15 2.75959e+16 -1.74269e+16 -3.37542e+15 7.37102e+15 -1.0953e+16)
(-4.59624e+16 2.60217e+16 -2.62624e+16 -1.98443e+16 2.05595e+16 -1.24819e+16)
(-8.97485e+16 3.48738e+16 -1.0567e+16 -3.88109e+16 2.0873e+16 -3.08195e+16)
(-9.45198e+16 3.09465e+16 -2.68643e+15 -4.91023e+16 1.63112e+16 -3.74441e+16)
(-8.5543e+16 1.71027e+16 1.97787e+15 -5.26271e+16 9.64069e+15 -3.76645e+16)
(-6.60561e+16 3.05249e+15 5.27854e+15 -4.66541e+16 3.85967e+15 -3.23069e+16)
(-2.82508e+16 -1.441e+15 7.35026e+15 -2.18903e+16 5.99977e+15 -1.78133e+16)
(-9.09878e+15 9.44179e+15 9.72902e+15 -1.43324e+16 -4.41271e+15 -2.02031e+16)
(9.44573e+15 9.06083e+15 1.5202e+16 -2.4089e+16 -1.26663e+15 -1.69813e+16)
(4.53696e+16 9.19852e+15 -1.06324e+16 -2.11671e+16 1.80146e+16 9.35814e+14)
(9.6033e+16 2.24069e+16 6.3364e+15 -9.52394e+15 2.05872e+16 4.0316e+16)
(1.35497e+17 9.7886e+15 8.30658e+15 -2.27474e+16 1.04216e+16 4.49958e+16)
(1.46416e+17 -2.32681e+16 4.18209e+15 -4.12145e+16 -3.0338e+14 3.90984e+16)
(1.26865e+17 -4.84291e+16 9.9053e+14 -5.04207e+16 -7.25962e+15 2.63149e+16)
(5.24455e+16 -2.81998e+16 -1.09627e+16 -2.81332e+16 1.34714e+14 2.92675e+15)
(4.41736e+16 -2.58991e+16 2.55927e+16 -1.98947e+16 -1.46396e+16 2.10738e+16)
(5.86293e+16 -5.77316e+16 1.59522e+16 -5.82446e+16 -1.88443e+16 -2.71368e+14)
(2.86088e+16 -5.04479e+16 9.82252e+14 -6.44861e+16 -1.1978e+16 -2.60485e+16)
(1.50319e+16 -3.43247e+16 3.27946e+16 -5.71359e+16 -7.92672e+15 -4.98779e+15)
(-4.23344e+14 -5.78785e+16 3.42564e+16 -8.26476e+16 -2.58352e+16 -2.85762e+16)
(5.30662e+15 -1.03713e+17 8.5704e+15 -9.30096e+16 -2.99676e+16 -2.82395e+16)
(2.27455e+15 -1.20513e+17 -4.97413e+15 -8.64086e+16 -2.72657e+16 -2.47179e+16)
(1.00539e+15 -5.897e+16 -4.09376e+16 -3.97075e+16 -1.83217e+16 -1.2311e+16)
(2.42067e+16 -4.05167e+16 4.42387e+16 -1.5106e+16 4.18629e+15 2.22418e+16)
(4.29671e+16 -6.57774e+16 -3.26532e+15 -2.96021e+16 -8.28417e+15 8.92363e+15)
(6.59992e+16 -2.25476e+16 -2.59652e+16 7.55263e+15 -4.00187e+15 1.74372e+16)
(5.33573e+16 1.59858e+16 -1.16532e+16 3.04845e+16 9.47909e+14 2.32753e+16)
(-3.80081e+15 6.8618e+15 1.27807e+16 2.28919e+16 -1.7582e+16 2.76144e+15)
(-8.21278e+16 -2.87135e+16 -1.20845e+16 3.30526e+15 -2.35811e+16 -4.43165e+16)
(-1.16555e+17 -3.10942e+16 -1.27723e+16 1.53661e+16 -1.47917e+16 -3.32401e+16)
(-5.47708e+16 -8.79165e+15 -2.64106e+16 1.6093e+16 -8.32198e+15 -3.00456e+15)
(-3.02416e+16 2.29492e+16 3.6776e+16 3.5363e+16 1.44508e+16 1.24923e+16)
(-4.43322e+16 6.83856e+16 8.17383e+15 8.48581e+16 1.63565e+16 1.81066e+16)
(1.21194e+16 1.08979e+17 -5.76289e+15 1.16722e+17 2.45863e+16 3.75052e+16)
(6.4945e+16 1.32117e+17 -2.31555e+15 1.2788e+17 2.97246e+16 5.32034e+16)
(8.4074e+16 1.15944e+17 7.77442e+15 1.26976e+17 2.1231e+16 6.61844e+16)
(5.98868e+16 7.92866e+16 -2.65069e+16 1.06859e+17 1.12082e+16 2.45646e+16)
(3.98767e+16 7.87212e+16 -1.84939e+16 1.14204e+17 2.27259e+16 4.37909e+16)
(1.35076e+16 4.68033e+16 5.51346e+15 6.18454e+16 2.02501e+16 3.65152e+16)
(1.83971e+16 8.5259e+16 1.5684e+16 7.29702e+16 1.1349e+16 3.74181e+16)
(2.97822e+16 1.91027e+17 1.41236e+16 1.5195e+17 3.13097e+16 6.41068e+16)
(2.65038e+16 2.11831e+17 5.97597e+15 1.5898e+17 3.51371e+16 6.09631e+16)
(1.77787e+16 1.94433e+17 4.75109e+15 1.38933e+17 3.05729e+16 4.5232e+16)
(-3.65663e+15 1.40024e+17 9.05297e+15 1.0311e+17 1.94288e+16 2.38047e+16)
(-4.10161e+15 7.61995e+16 -1.25913e+16 7.14688e+16 9.4162e+15 1.90396e+15)
(1.32279e+16 4.92975e+16 -2.77658e+16 5.5478e+16 1.87877e+16 1.11511e+15)
(2.27844e+16 2.47517e+16 8.31107e+15 3.99576e+16 2.5037e+16 3.95251e+16)
(2.2243e+16 4.48643e+16 1.03685e+16 2.7293e+16 -4.32965e+14 2.17761e+16)
(1.8298e+16 8.72189e+16 -5.26556e+14 4.0052e+16 1.57193e+16 2.62543e+16)
(-2.71382e+16 7.12535e+16 -7.03643e+15 1.54204e+16 1.21422e+16 3.32618e+15)
(-6.92462e+16 3.91403e+16 -8.41629e+15 -9.56473e+15 2.02212e+14 -2.22834e+16)
(-1.05334e+17 -1.11384e+15 -5.49658e+15 -2.92592e+16 -1.33233e+16 -4.34073e+16)
(-1.20141e+17 -3.85439e+16 -9.09968e+15 -4.07934e+16 -2.128e+16 -5.77886e+16)
(-9.42808e+16 -4.48352e+16 -1.09621e+16 -4.11539e+16 -1.487e+16 -6.44822e+16)
(-1.82767e+16 -1.76466e+16 2.57462e+16 -2.25014e+15 1.03688e+16 6.36521e+15)
(-2.74876e+16 1.51286e+16 7.16939e+15 -1.44953e+16 -5.7327e+15 -1.15661e+16)
(-5.35238e+16 2.78871e+16 -3.40542e+15 -3.51438e+16 -1.1564e+15 -2.30876e+16)
(-4.26131e+16 1.85789e+16 -8.50072e+15 -4.28547e+16 -3.8398e+15 -2.23357e+16)
(-1.93268e+16 3.76754e+15 -1.0825e+16 -4.02989e+16 -9.23496e+15 -1.64849e+16)
(6.1959e+15 -1.15123e+16 -1.03148e+16 -2.99568e+16 -1.38846e+16 -7.47447e+15)
(3.32334e+16 -2.32083e+16 -9.92698e+15 -1.28835e+16 -1.59305e+16 4.43348e+15)
(6.52261e+16 -2.41328e+16 -8.25881e+15 8.2562e+15 -1.22866e+16 1.67865e+16)
(4.24049e+16 -1.0384e+16 1.26992e+16 1.07422e+16 1.44736e+15 1.39711e+16)
(-1.53214e+16 -8.47152e+15 -5.0923e+15 -1.44867e+16 -3.18351e+15 -1.601e+16)
(2.92189e+15 -2.04883e+16 1.86593e+15 -2.08059e+16 -1.36506e+16 -1.12674e+16)
(1.00872e+16 -2.93912e+16 -1.69009e+16 -3.1481e+16 -1.73887e+16 -9.31425e+15)
(-2.65932e+16 -3.33628e+16 -1.48516e+16 -5.67359e+16 -1.87296e+16 -2.1557e+16)
(-4.78593e+16 -2.7497e+16 -8.41543e+15 -7.47035e+16 -1.67418e+16 -3.11172e+16)
(-5.4292e+16 -1.71031e+16 -3.30184e+15 -8.18503e+16 -1.16781e+16 -3.56316e+16)
(-5.21349e+16 -6.10601e+15 2.72417e+14 -7.62893e+16 -6.65319e+15 -3.5352e+16)
(-2.59534e+16 -5.11521e+14 4.07968e+15 -3.62567e+16 -6.42773e+15 -2.02769e+16)
(-2.06646e+16 -8.15095e+15 -3.13316e+15 -3.12122e+16 3.10186e+15 -2.02837e+16)
(-3.72535e+16 -2.18361e+16 3.0982e+16 -5.39824e+16 -9.56539e+15 -2.37162e+16)
(-7.84053e+16 -3.31711e+16 -5.87938e+15 -6.65948e+16 -1.59049e+16 -6.16299e+16)
(-9.55078e+16 -1.95524e+16 -2.93458e+15 -5.10732e+16 -1.75151e+16 -4.48253e+16)
(-7.10454e+16 2.4151e+16 5.80913e+15 -2.96773e+16 -1.08953e+16 -2.42286e+16)
(-2.15172e+16 6.63301e+16 5.61158e+15 -8.15384e+15 1.49262e+14 -2.8276e+15)
(2.72317e+16 8.81953e+16 2.47693e+15 1.20486e+16 5.73263e+15 1.6593e+16)
(2.53025e+16 4.60826e+16 -2.28223e+15 1.16815e+16 -6.17081e+15 1.42713e+16)
(5.08207e+16 5.27173e+16 4.19385e+15 2.33329e+16 2.29379e+16 2.39998e+16)
(9.5215e+16 1.00341e+17 6.43414e+15 5.43095e+16 2.41962e+16 5.44949e+16)
(6.23183e+16 8.63388e+16 -3.67943e+16 5.04136e+16 2.21631e+16 1.77256e+16)
(2.93298e+16 1.03694e+17 -2.06243e+16 7.25091e+16 2.22332e+16 2.56915e+16)
(8.01281e+15 1.5905e+17 1.5188e+16 9.85376e+16 2.71398e+16 3.31469e+16)
(1.74628e+16 1.97021e+17 2.01437e+16 1.18184e+17 3.43375e+16 4.15601e+16)
(2.02516e+16 1.92401e+17 1.70839e+16 1.20485e+17 3.23119e+16 4.42742e+16)
(1.22092e+16 8.94511e+16 4.71436e+14 6.058e+16 1.2949e+16 2.72984e+16)
(1.73457e+16 7.27389e+16 1.913e+16 5.72504e+16 1.73075e+16 2.89923e+16)
(2.27204e+16 1.29763e+17 1.3065e+16 1.03603e+17 2.20113e+16 3.75953e+16)
(4.24558e+16 9.53382e+16 -2.32207e+16 9.38186e+16 1.96919e+16 3.25946e+16)
(6.92246e+16 9.24908e+16 -3.98663e+16 8.18756e+16 1.95465e+16 2.69579e+16)
(1.02765e+17 1.22455e+17 6.4542e+15 8.99988e+16 2.00028e+16 6.72878e+16)
(1.00726e+17 1.17178e+17 7.94487e+15 6.91614e+16 2.21196e+16 5.2974e+16)
(6.28342e+16 6.97693e+16 2.16934e+15 4.25295e+16 2.0834e+16 3.49291e+16)
(1.99171e+16 2.08692e+16 -1.19858e+15 1.61448e+16 1.99356e+16 1.63805e+16)
(-1.04273e+14 -8.19163e+15 9.12317e+15 1.79702e+16 -1.32287e+16 2.22545e+16)
(-3.79143e+16 -3.39722e+16 2.67792e+15 1.81456e+16 -1.82143e+16 -2.75477e+15)
(-6.70782e+16 -6.26907e+16 -9.31831e+15 1.04663e+16 -2.35299e+16 -2.52681e+16)
(-6.12432e+16 -5.6428e+16 -1.10122e+16 -8.32998e+14 -2.25799e+16 -4.24916e+16)
(-2.62043e+16 -2.56738e+16 3.6531e+16 5.52012e+15 -2.24794e+16 -4.58096e+15)
(-5.88419e+15 -3.96548e+16 2.49858e+16 -1.84716e+16 -2.01907e+16 -1.16196e+16)
(2.50529e+15 -9.42473e+16 -4.35329e+15 -4.99765e+16 -1.26332e+16 -1.26212e+16)
(4.81899e+14 -6.07484e+16 -7.71215e+15 -2.85392e+16 6.97015e+15 4.734e+15)
(-5.48189e+15 -8.02667e+16 1.8499e+15 -3.44335e+16 -2.69353e+16 -2.43514e+15)
(-2.02731e+16 -1.67295e+17 -1.73206e+16 -7.11221e+16 -4.04871e+16 -2.20569e+16)
(-1.75955e+16 -1.59411e+17 -2.50548e+16 -5.57651e+16 -3.64475e+16 -2.15032e+16)
(-2.77161e+15 -1.13371e+17 -2.24429e+16 -3.17149e+16 -2.58151e+16 -1.68712e+16)
(-1.73908e+16 -5.65319e+16 1.50997e+16 -7.99642e+15 -1.95172e+16 -1.3898e+16)
(-4.69301e+16 -4.31899e+16 3.65026e+16 4.70352e+15 -1.45406e+16 -1.05668e+16)
(-8.73235e+16 -7.10965e+16 -1.78214e+15 -2.4641e+16 -9.46582e+15 -5.0623e+16)
(-4.25042e+16 -4.34506e+16 7.15426e+15 -9.38993e+15 1.45901e+16 -3.23487e+15)
(-3.80097e+16 -4.43809e+16 -3.86868e+15 -1.51683e+16 -3.06942e+16 -1.86778e+16)
(-5.80428e+16 -7.95082e+16 -9.69713e+15 -1.82883e+16 -2.77672e+16 -2.24617e+16)
(-1.75446e+16 -4.96884e+16 -1.39109e+16 8.30582e+14 -8.35331e+15 -3.71128e+15)
(3.48376e+16 -2.9501e+15 -1.30001e+16 2.32092e+16 1.33472e+16 1.68381e+16)
(7.20131e+16 4.6138e+16 -1.1021e+14 5.04031e+16 2.93388e+16 3.67852e+16)
(7.11627e+16 6.41757e+16 1.02276e+16 7.42665e+16 3.75317e+16 5.34577e+16)
(4.106e+16 5.24222e+16 -1.99609e+16 6.04266e+16 3.6375e+16 1.62988e+16)
(2.74555e+16 2.27737e+16 1.7671e+16 3.51989e+16 3.48777e+16 2.4614e+16)
(3.1976e+16 2.40225e+16 -5.83363e+15 3.10963e+16 -1.76425e+16 1.63457e+16)
(7.26101e+16 6.3755e+16 1.10397e+15 7.013e+16 -7.39461e+15 4.14564e+16)
(8.2024e+16 8.9603e+16 2.22578e+15 7.62121e+16 5.55173e+15 4.74116e+16)
(8.25424e+16 1.04213e+17 3.15033e+15 7.21289e+16 1.80545e+16 4.62867e+16)
(6.76505e+16 1.06067e+17 6.71896e+15 6.00112e+16 2.76672e+16 3.76516e+16)
(3.2568e+16 9.04883e+16 9.63352e+15 4.20163e+16 3.22721e+16 2.3786e+16)
(3.18016e+16 6.22801e+16 -5.38801e+15 3.45064e+16 3.22998e+16 2.14987e+16)
(2.76653e+16 2.35162e+16 7.23012e+15 1.94841e+16 2.00142e+16 1.58902e+16)
(-5.7313e+16 2.69379e+16 -2.03533e+16 -2.07201e+16 1.06717e+16 -3.60452e+16)
(-9.36205e+16 7.16878e+16 -9.8809e+15 -1.29526e+16 2.11229e+16 -3.31769e+16)
(-8.35869e+16 9.68543e+16 -1.10118e+16 1.41357e+16 2.25947e+16 -1.85063e+16)
(-7.95975e+16 1.03313e+17 -6.94493e+15 3.40751e+16 1.74334e+16 -6.32311e+15)
(-6.95038e+16 9.42565e+16 2.46023e+15 4.77339e+16 8.6457e+15 2.50507e+15)
(-4.52778e+16 7.30329e+16 1.19525e+16 5.34606e+16 8.96442e+14 8.95789e+15)
(-1.27348e+16 4.36967e+16 1.65306e+16 4.54005e+16 -6.16282e+15 1.03775e+16)
(-3.84389e+15 1.37115e+16 6.47467e+15 1.27657e+16 -1.232e+16 -9.26282e+15)
(-1.11888e+16 3.531e+16 -3.36351e+16 8.49704e+13 2.04445e+16 -3.46739e+16)
(1.37239e+16 8.74272e+16 -2.80262e+15 4.51753e+16 3.10458e+16 2.39305e+16)
(-1.9095e+16 9.57587e+16 -1.04149e+16 4.54734e+16 3.40415e+16 1.02861e+16)
(-8.01272e+16 6.88535e+16 -1.616e+16 3.87754e+16 2.07309e+16 -4.48377e+15)
(-1.3824e+17 3.3117e+16 -9.73397e+15 2.5857e+16 3.8867e+15 -2.1565e+16)
(-1.69367e+17 -2.78042e+15 2.00784e+14 4.98422e+15 -1.07582e+16 -3.91536e+16)
(-1.68671e+17 -3.67663e+16 1.02232e+16 -2.22744e+16 -2.25448e+16 -5.32438e+16)
(-8.66771e+16 -2.60809e+16 2.42742e+16 -2.50473e+16 -2.02225e+16 -4.50807e+16)
(-4.89271e+16 -4.1633e+15 -3.74279e+16 -3.11778e+16 7.23537e+15 -5.28488e+16)
(-4.8685e+16 6.06138e+15 1.04636e+15 -2.00128e+16 -4.41364e+15 -2.24471e+16)
(-7.02394e+15 7.62054e+15 -1.93254e+16 -2.38565e+15 3.35128e+15 -1.94942e+15)
(-3.6737e+14 -3.13132e+16 -3.5609e+16 -1.32526e+16 -8.34711e+15 -6.09354e+15)
(-2.02376e+16 -7.28218e+16 -1.87139e+16 -4.1722e+16 -1.85013e+16 -1.40285e+16)
(-2.87584e+16 -9.63799e+16 2.56702e+15 -6.9826e+16 -2.42008e+16 -2.08966e+16)
(-2.87097e+16 -1.01701e+17 1.9922e+16 -8.29778e+16 -2.67265e+16 -2.32087e+16)
(-1.19872e+16 -4.9434e+16 5.05084e+16 -4.00716e+16 -9.28197e+15 -7.36411e+15)
(-7.37231e+15 -2.4526e+16 -3.97163e+16 -4.2916e+16 -4.99929e+15 -2.06309e+16)
(-2.121e+16 -2.41079e+16 1.61662e+16 -6.95731e+16 -1.88073e+16 -3.31776e+16)
(-5.91543e+15 -8.63641e+14 1.96494e+16 -3.22911e+16 -9.53845e+15 -7.65846e+15)
(6.98278e+15 -1.47712e+16 -1.15011e+16 -2.9373e+16 -1.55063e+16 -2.58267e+16)
(4.20372e+16 -2.15042e+16 5.90414e+15 -2.52076e+16 -2.37115e+16 8.2989e+14)
(9.14757e+16 -7.48123e+15 2.59457e+16 -2.23012e+16 -1.59109e+16 2.56421e+16)
(1.29394e+17 6.51216e+15 3.09165e+16 -9.90261e+15 -6.56288e+15 4.63627e+16)
(7.56387e+16 5.97857e+15 2.8766e+16 5.67389e+15 2.44754e+15 4.00009e+16)
(7.87575e+16 2.55399e+16 -1.63779e+16 1.53262e+16 2.59003e+15 3.83708e+16)
(1.4352e+17 6.95692e+16 -8.7145e+15 3.40681e+16 8.90185e+15 5.86548e+16)
(1.13499e+17 8.06755e+16 -8.55122e+15 5.42925e+16 1.66705e+16 5.58852e+16)
(5.90662e+16 5.9017e+16 -2.46929e+16 4.49732e+16 1.65257e+16 1.76343e+16)
(1.56297e+16 5.76839e+16 8.88902e+15 3.68113e+16 -2.26526e+15 1.97595e+15)
(4.16285e+15 9.05763e+16 4.13906e+16 5.75308e+16 6.98426e+15 1.47169e+16)
(1.55507e+16 1.1417e+17 3.84233e+16 8.52661e+16 2.3848e+16 3.20482e+16)
(1.23711e+16 5.89068e+16 1.19035e+16 5.08081e+16 2.84899e+16 2.72038e+16)
(2.04812e+16 7.22221e+16 3.79005e+15 6.78853e+16 -6.58446e+15 4.05116e+16)
(2.98815e+16 1.51544e+17 -1.27798e+16 1.35885e+17 1.43634e+16 4.94293e+16)
(3.91745e+16 1.46063e+17 -2.05402e+16 1.51189e+17 2.70046e+16 5.35953e+16)
(6.20856e+16 1.10377e+17 -4.16649e+16 1.40157e+17 2.83761e+16 5.43027e+16)
(5.84579e+16 9.1825e+16 -3.55759e+16 1.12982e+17 1.00986e+16 3.05074e+16)
(5.04959e+16 1.09293e+17 1.03758e+16 1.21238e+17 2.09888e+16 5.52031e+16)
(1.04105e+16 1.06265e+17 1.14349e+16 1.05045e+17 4.21702e+16 3.63691e+16)
(-3.89568e+15 4.51617e+16 1.947e+16 4.98658e+16 5.62084e+16 2.54829e+16)
(-1.89219e+16 4.20677e+16 -1.7998e+16 5.13963e+16 -3.7592e+16 2.73655e+16)
(-6.14454e+16 8.61812e+16 -1.44507e+16 8.43982e+16 -1.11832e+16 1.41752e+15)
(-6.25927e+16 7.2726e+16 -1.15732e+16 7.42458e+16 -3.52262e+15 -9.16376e+15)
(-4.13486e+16 4.13696e+16 -1.24154e+16 5.13589e+16 -6.42642e+15 -1.4521e+16)
(7.56929e+15 3.3025e+16 -8.37394e+15 4.00648e+16 -1.17802e+16 -1.06198e+16)
(5.66732e+16 4.68463e+16 1.87474e+16 5.4853e+16 -1.52427e+14 2.81525e+16)
(7.13617e+16 3.54472e+16 3.12345e+15 5.18042e+16 2.94818e+16 4.93307e+16)
(5.22667e+16 8.86866e+15 1.9748e+16 3.56306e+16 4.05656e+16 6.22326e+16)
(6.988e+16 2.55532e+16 -2.0871e+16 4.04293e+16 -2.59557e+16 4.22946e+16)
(1.52184e+17 5.29561e+16 -1.36339e+16 7.46471e+16 -1.2174e+16 6.4899e+16)
(1.87554e+17 4.98149e+16 -6.42364e+15 7.93842e+16 -1.24138e+16 7.35096e+16)
(2.03511e+17 3.90543e+16 1.6874e+15 7.67525e+16 -1.44151e+16 7.58613e+16)
(2.01014e+17 3.27153e+16 1.23179e+16 6.77473e+16 -1.41749e+16 6.85512e+16)
(1.5227e+17 3.43233e+16 3.44486e+16 5.12724e+16 -1.07922e+16 4.84139e+16)
(8.76459e+16 1.64526e+16 3.10446e+16 3.23297e+16 7.37797e+15 4.47648e+16)
(3.89071e+16 -1.79763e+15 1.75657e+16 1.79975e+16 9.02006e+15 4.17634e+16)
(-7.18091e+16 -2.02096e+16 -2.28785e+16 -5.92182e+16 2.74941e+15 -6.39268e+16)
(-1.55546e+17 -4.57513e+16 -3.04401e+16 -1.15708e+17 -8.15795e+15 -8.59722e+16)
(-2.11406e+17 -5.04106e+16 -2.66528e+16 -1.49096e+17 -8.07219e+15 -1.03849e+17)
(-2.43705e+17 -4.4739e+16 -1.82665e+16 -1.665e+17 -7.70978e+15 -1.10948e+17)
(-2.51839e+17 -3.29164e+16 -4.27985e+15 -1.60124e+17 -8.53706e+15 -1.0795e+17)
(-2.17112e+17 -1.50746e+16 1.55472e+16 -1.29099e+17 -1.5496e+15 -9.04577e+16)
(-1.27808e+17 5.12235e+15 3.14639e+16 -7.8545e+16 1.34814e+15 -5.46455e+16)
(-4.94775e+16 7.1507e+15 1.78472e+16 -3.86551e+16 -6.06656e+15 -4.99451e+16)
(-6.27498e+16 -3.05239e+16 -3.06234e+16 -7.09787e+16 4.29412e+15 -8.25563e+16)
(-9.42466e+16 -6.25106e+16 -1.61661e+16 -1.1598e+17 -1.55939e+16 -7.31362e+16)
(-1.03614e+17 -6.12987e+16 -9.33388e+15 -1.3418e+17 -1.34227e+16 -6.68534e+16)
(-1.08258e+17 -5.34105e+16 -1.16429e+16 -1.32709e+17 -1.16862e+16 -5.55804e+16)
(-1.0307e+17 -3.16031e+16 -8.34916e+15 -1.09053e+17 -2.19562e+15 -4.07658e+16)
(-8.17159e+16 -3.0885e+15 6.10914e+15 -7.61224e+16 1.30693e+16 -2.555e+16)
(-6.34578e+16 1.06991e+16 1.76122e+16 -4.47956e+16 1.52491e+16 -1.82281e+16)
(-4.77079e+16 6.28312e+15 1.86785e+16 -3.32328e+16 3.10221e+15 -5.18915e+16)
(-3.13843e+16 5.89261e+15 -3.75557e+16 -2.53328e+16 8.83066e+15 -3.3434e+16)
(-7.2188e+16 1.71521e+16 -1.50311e+16 -4.95312e+16 -1.2824e+16 -5.18168e+16)
(-7.97101e+16 3.5788e+16 -3.35988e+15 -3.24509e+16 -8.62741e+15 -3.4526e+16)
(-6.27493e+16 6.26663e+16 -4.63048e+15 1.15955e+16 -3.91178e+15 -1.31431e+16)
(-5.02284e+16 8.46655e+16 -5.94532e+14 4.88198e+16 1.12811e+16 5.91725e+15)
(-4.15508e+16 9.126e+16 2.03995e+16 6.69241e+16 2.5292e+16 2.08193e+16)
(-2.32859e+16 8.10661e+16 3.18858e+16 7.5551e+16 2.23516e+16 2.89934e+16)
(-1.08404e+16 3.63338e+16 4.12007e+16 3.48791e+16 1.42533e+16 4.74522e+15)
(3.4589e+15 2.12246e+16 -5.53287e+16 3.03416e+16 1.09485e+16 7.6401e+15)
(-1.3521e+16 5.70518e+16 -4.00477e+16 5.54091e+16 -3.49484e+15 1.56567e+15)
(-1.76966e+16 8.78547e+16 -1.29683e+16 8.02974e+16 5.2766e+15 1.91868e+16)
(-1.27205e+16 1.10021e+17 -9.13628e+15 1.15939e+17 1.24237e+16 2.83153e+16)
(-4.68724e+16 1.18895e+17 -1.31031e+16 1.30808e+17 9.65057e+15 1.29514e+16)
(-8.49468e+16 1.11204e+17 1.50296e+16 1.26676e+17 2.06159e+16 1.09055e+16)
(-9.16852e+16 8.40744e+16 3.23202e+16 1.06173e+17 1.41666e+16 2.03731e+16)
(-4.3573e+16 3.37713e+16 7.21543e+16 4.76299e+16 1.66265e+16 1.47777e+16)
(-6.83045e+16 2.07378e+16 -8.59697e+16 1.73923e+16 -1.12585e+16 -3.79766e+16)
(-1.01682e+17 5.09059e+16 -5.43357e+16 5.74816e+16 -3.29429e+15 -2.21161e+16)
(-7.82284e+16 6.59955e+16 -3.18578e+16 6.57347e+16 1.87871e+15 2.79521e+15)
(-6.77449e+16 6.70983e+16 -2.59845e+16 7.29935e+16 1.64203e+16 7.77227e+15)
(-6.72765e+16 6.37737e+16 -3.06968e+16 6.67459e+16 6.46394e+15 -1.77899e+16)
(-8.21095e+16 5.25763e+16 9.57518e+15 5.15308e+16 9.07963e+15 -1.62233e+16)
(-8.1968e+16 3.07077e+16 4.82031e+16 3.43301e+16 1.66217e+16 2.84879e+15)
(-2.5029e+16 1.06342e+16 1.14117e+17 2.14089e+16 4.23981e+16 2.52721e+16)
(-3.77647e+16 1.8588e+16 -1.08544e+17 -5.55896e+15 -4.28771e+16 -3.71023e+16)
(-5.66895e+16 4.55487e+16 -2.40517e+16 4.99998e+15 -1.62175e+16 -2.73764e+16)
(-2.28853e+15 6.86977e+16 9.62759e+15 2.09527e+16 -2.90348e+15 1.05828e+16)
(7.78466e+16 8.42778e+16 1.48778e+15 4.63564e+16 7.77391e+15 3.76284e+16)
(1.03151e+17 8.60268e+16 -2.49391e+16 4.31724e+16 -3.801e+15 2.05694e+16)
(1.66939e+17 9.05677e+16 1.4038e+16 5.40183e+16 5.77704e+14 6.75134e+16)
(2.02333e+17 8.38255e+16 4.50849e+16 4.92062e+16 1.67888e+16 9.49675e+16)
(1.03808e+17 3.67438e+16 1.00253e+17 2.88709e+16 4.886e+16 7.30231e+16)
(8.175e+16 3.63583e+16 -9.10953e+16 1.21518e+16 -4.77495e+16 3.3277e+16)
(2.19313e+17 9.03045e+16 1.81123e+14 3.1295e+16 -7.56709e+15 7.89357e+16)
(2.4246e+17 1.04076e+17 2.29867e+16 2.1486e+16 7.90029e+15 6.97873e+16)
(2.14664e+17 9.46832e+16 1.96888e+16 1.42816e+16 1.67494e+16 5.01582e+16)
(2.4544e+17 1.00419e+17 8.96445e+14 3.74838e+16 1.27904e+16 5.512e+16)
(2.34749e+17 1.01746e+17 2.99112e+16 3.09142e+16 9.86413e+15 6.13787e+16)
(1.86806e+17 9.04221e+16 3.2008e+16 2.06388e+16 2.32129e+16 8.2088e+16)
(1.04107e+17 4.45418e+16 4.37854e+16 3.16458e+16 2.62339e+16 8.80107e+16)
(1.22075e+17 3.78686e+16 -3.94723e+16 4.0375e+16 -1.97934e+16 5.91439e+16)
(2.2363e+17 6.83062e+16 -9.72882e+15 5.16561e+16 3.46285e+15 9.05249e+16)
(2.09e+17 6.29584e+16 -1.20465e+16 2.95834e+16 4.129e+15 6.22702e+16)
(2.05054e+17 6.04065e+16 2.00374e+15 4.05518e+16 1.30368e+16 6.12437e+16)
(1.98501e+17 5.03413e+16 6.42439e+15 4.61184e+16 1.83444e+16 6.0663e+16)
(1.75745e+17 5.12005e+16 2.69104e+16 3.65739e+16 8.42329e+15 4.35243e+16)
(1.20952e+17 4.89029e+16 4.00742e+16 3.32757e+16 1.73299e+16 5.40567e+16)
(5.0517e+16 2.0158e+16 2.16057e+16 2.49899e+16 8.22995e+15 5.11526e+16)
(1.13449e+15 2.15141e+16 -5.48123e+15 3.61545e+15 1.22607e+16 -1.83944e+16)
(-9.08743e+15 4.79799e+16 -2.86797e+16 2.24893e+16 6.03839e+15 -5.62484e+15)
(-2.66621e+16 4.98588e+16 -1.97985e+16 2.66386e+16 1.32803e+16 3.81471e+15)
(-3.40144e+16 4.22676e+16 -1.95268e+16 1.69484e+16 1.08723e+16 3.3272e+15)
(-1.05488e+17 3.43971e+16 -2.77027e+16 -1.27778e+16 1.50234e+15 -2.78396e+16)
(-1.34596e+17 2.0854e+16 6.97401e+15 -2.9105e+16 1.24182e+16 -3.5114e+16)
(-7.33134e+16 9.79953e+15 1.93659e+16 -2.51209e+16 1.16858e+16 -2.05224e+16)
(-2.73819e+16 4.46803e+15 1.03952e+16 -1.87281e+16 -5.26815e+15 -2.72815e+16)
(-1.0805e+17 1.62349e+16 -2.22161e+16 -3.48303e+16 2.07326e+16 -7.68578e+16)
(-1.56989e+17 3.10396e+16 -5.5605e+15 -2.18685e+16 1.54701e+16 -6.68386e+16)
(-1.36531e+17 1.01713e+16 6.11317e+15 -1.19782e+16 1.55284e+16 -4.35961e+16)
(-2.09032e+17 -1.87766e+16 -2.37869e+16 -4.42396e+16 -2.48712e+15 -6.78522e+16)
(-1.96665e+17 -1.92355e+16 -1.68916e+16 -3.77666e+16 -4.43312e+15 -5.49245e+16)
(-1.00428e+17 -2.92867e+16 2.18744e+16 -2.32146e+16 4.53567e+15 -1.86717e+16)
(-1.14328e+17 -4.5002e+16 3.11381e+15 -5.26395e+16 -5.21117e+15 -3.54956e+16)
(-8.56206e+16 -2.08077e+16 2.61912e+16 -4.43875e+16 -5.91618e+15 -4.93345e+16)
(-8.78184e+15 4.03947e+15 -4.84398e+16 -6.16352e+14 1.26685e+16 -1.50924e+16)
(-3.83514e+16 -3.28927e+16 8.42285e+14 -2.10148e+16 -1.02387e+15 -2.5411e+16)
(-1.34345e+17 -9.48903e+16 -9.49588e+15 -7.60274e+16 -1.73398e+16 -6.3825e+16)
(-1.42913e+17 -1.06708e+17 -1.02496e+16 -7.59349e+16 -2.84945e+16 -6.77589e+16)
(-9.97115e+16 -1.10712e+17 1.42744e+16 -6.47317e+16 -2.17654e+16 -3.9115e+16)
(-1.38257e+17 -1.30977e+17 4.71971e+16 -1.12252e+17 -1.74724e+16 -6.97603e+16)
(-8.6673e+16 -9.76712e+16 2.66987e+16 -8.82742e+16 -2.5943e+16 -4.10997e+16)
(-1.99314e+16 -2.86567e+16 6.06525e+16 -3.03899e+16 2.04188e+15 -1.93993e+16)
(-6.81424e+15 -3.72353e+16 -5.80577e+16 -2.47418e+16 -2.92236e+15 -1.59053e+16)
(-1.64559e+16 -1.08412e+17 -2.17698e+16 -7.11612e+16 -2.06432e+16 -2.70702e+16)
(1.1815e+16 -1.32665e+17 -3.65794e+16 -7.39508e+16 -3.73069e+16 -1.41498e+16)
(4.22368e+16 -1.29736e+17 -9.7031e+15 -6.18402e+16 -2.8873e+16 -9.69721e+15)
(2.56525e+16 -1.55467e+17 -1.11597e+16 -8.82911e+16 -3.17969e+16 -2.02642e+16)
(-1.42338e+16 -1.7995e+17 2.30322e+16 -1.16446e+17 -2.50164e+16 -3.66938e+16)
(-1.9309e+16 -1.61539e+17 3.00943e+16 -1.08554e+17 -1.64519e+16 -2.50608e+16)
(-1.16005e+16 -6.88076e+16 5.03476e+16 -5.7488e+16 9.66449e+15 -2.85134e+16)
(-3.59457e+16 -7.32032e+16 -5.2474e+16 -6.82174e+16 -2.60853e+16 -4.79317e+16)
(-6.72695e+16 -1.80376e+17 -2.00373e+16 -1.34259e+17 -2.89842e+16 -5.7127e+16)
(-6.71517e+16 -2.18194e+17 -2.19671e+16 -1.54069e+17 -3.45753e+16 -6.05569e+16)
(-6.61439e+16 -2.21533e+17 -1.2139e+16 -1.60129e+17 -2.64418e+16 -7.4464e+16)
(-6.54238e+16 -2.37876e+17 -9.954e+15 -1.6103e+17 -2.87458e+16 -7.73246e+16)
(-5.87408e+16 -2.60707e+17 1.69787e+16 -1.69529e+17 -2.7514e+16 -6.39757e+16)
(-7.16008e+16 -2.35424e+17 3.04644e+16 -1.66858e+17 -9.14752e+15 -5.86179e+16)
(-3.94959e+16 -1.02081e+17 4.78323e+16 -7.77855e+16 2.31135e+16 -2.90967e+16)
(-3.77365e+16 -9.49626e+16 -5.05465e+16 -7.76455e+16 -3.8563e+16 -4.39254e+16)
(-6.13955e+16 -2.2107e+17 -1.16916e+16 -1.59423e+17 -3.28629e+16 -6.2484e+16)
(-5.47346e+16 -2.4117e+17 -7.13288e+15 -1.69925e+17 -2.43241e+16 -6.77e+16)
(-2.69816e+16 -2.19988e+17 -6.20014e+15 -1.41385e+17 -1.44478e+16 -6.5643e+16)
(-1.76316e+15 -2.27551e+17 -4.43604e+15 -1.24209e+17 -1.86137e+16 -5.10613e+16)
(1.7307e+15 -2.32235e+17 1.30556e+16 -1.24677e+17 -1.46853e+16 -3.72391e+16)
(2.3392e+16 -1.85063e+17 2.52191e+16 -8.35729e+16 5.57465e+15 1.07218e+15)
(2.01382e+16 -7.54533e+16 4.32336e+16 -2.55323e+16 2.54527e+16 1.38646e+16)
(3.42467e+14 -6.83296e+16 -4.29838e+16 -3.85924e+16 -3.27123e+16 4.24573e+15)
(2.71376e+16 -1.43043e+17 1.14003e+16 -8.07161e+16 -1.69148e+16 -4.69242e+15)
(7.21085e+16 -1.38059e+17 7.49523e+15 -6.54339e+16 -1.72165e+16 -1.01398e+16)
(9.90711e+16 -1.21901e+17 1.24066e+16 -3.71919e+16 -1.81495e+16 -9.29029e+15)
(1.12068e+17 -1.25562e+17 3.96553e+15 -2.36225e+16 -2.15792e+16 8.64582e+15)
(1.11632e+17 -1.25017e+17 2.34754e+16 -1.80257e+16 -2.19481e+16 1.9536e+16)
(9.79625e+16 -1.02146e+17 1.89935e+16 9.60004e+15 -9.30154e+15 4.78554e+16)
(4.31662e+16 -4.41363e+16 2.3037e+16 1.6411e+16 4.14779e+15 4.16146e+16)
(7.96146e+16 -2.00037e+16 -2.92587e+16 2.06631e+16 -1.31155e+16 4.6772e+16)
(1.35596e+17 -4.07857e+16 -1.15888e+16 3.39496e+16 -2.84833e+15 5.85344e+16)
(1.20783e+17 -4.28698e+16 -1.71718e+16 2.86974e+16 -9.74863e+15 3.64742e+16)
(1.10764e+17 -3.7901e+16 -3.23419e+15 1.72944e+16 -1.64055e+16 2.11439e+16)
(1.19806e+17 -3.01693e+16 2.51781e+15 3.33557e+16 -1.57443e+16 3.58675e+16)
(9.89147e+16 -3.5493e+16 1.9522e+16 2.36889e+16 -1.93502e+16 3.15527e+16)